
  **** **** ******  **  PROGRAM STARTED AT               2023-05-11 15:07:35.838
 ***** ** ***  *** **   PROGRAM STARTED ON                       simtech-nbl-020
 **    ****   ******    PROGRAM STARTED BY                              ac127777
 ***** **    ** ** **   PROGRAM PROCESS ID                               4139653
  **** **  *******  **  PROGRAM STARTED IN    /home/ac127777/Documents/The_Force

 CP2K| version string:                                          CP2K version 9.1
 CP2K| source code revision number:                                  git:d8d7100
 CP2K| cp2kflags: omp libint fftw3 libxc xsmm spglib libvori libbqb             
 CP2K| is freely available from                            https://www.cp2k.org/
 CP2K| Program compiled at                          Do 4. Aug 18:17:51 CEST 2022
 CP2K| Program compiled on                                       simtech-nbl-020
 CP2K| Program compiled for                                                local
 CP2K| Data directory path                /home/ac127777/Downloads/cp2k-9.1/data
 CP2K| Input file name                                                  cp2k.inp

 GLOBAL| Force Environment number                                              1
 GLOBAL| Basis set file name                                    BASIS_MOLOPT_UZH
 GLOBAL| Potential file name                                       POTENTIAL_UZH
 GLOBAL| MM Potential file name                                     MM_POTENTIAL
 GLOBAL| Coordinate file name                                      __STD_INPUT__
 GLOBAL| Method name                                                        CP2K
 GLOBAL| Project name                                                       cp2k
 GLOBAL| Run type                                                   ENERGY_FORCE
 GLOBAL| FFT library                                                       FFTW3
 GLOBAL| Diagonalization library                                       ScaLAPACK
 GLOBAL| Orthonormality check for eigenvectors                          DISABLED
 GLOBAL| Matrix multiplication library                                 ScaLAPACK
 GLOBAL| All-to-all communication in single precision                          F
 GLOBAL| FFTs using library dependent lengths                                  F
 GLOBAL| Grid backend                                                       AUTO
 GLOBAL| Global print level                                               MEDIUM
 GLOBAL| MPI I/O enabled                                                       T
 GLOBAL| Total number of message passing processes                             1
 GLOBAL| Number of threads for this process                                    6
 GLOBAL| This output is from process                                           0
 GLOBAL| Stack size for threads created by OpenMP (OMP_STACKSIZE)        default
 GLOBAL| CPU model name                Intel(R) Core(TM) i7-10750H CPU @ 2.60GHz
 GLOBAL| CPUID                                                              1002

 MEMORY| system memory details [Kb]
 MEMORY|                        rank 0           min           max       average
 MEMORY| MemTotal             32736856      32736856      32736856      32736856
 MEMORY| MemFree               8199264       8199264       8199264       8199264
 MEMORY| Buffers               1866928       1866928       1866928       1866928
 MEMORY| Cached               11742620      11742620      11742620      11742620
 MEMORY| Slab                  1349680       1349680       1349680       1349680
 MEMORY| SReclaimable          1055500       1055500       1055500       1055500
 MEMORY| MemLikelyFree        22864312      22864312      22864312      22864312


 *** Fundamental physical constants (SI units) ***

 *** Literature: B. J. Mohr and B. N. Taylor,
 ***             CODATA recommended values of the fundamental physical
 ***             constants: 2006, Web Version 5.1
 ***             http://physics.nist.gov/constants

 Speed of light in vacuum [m/s]                             2.99792458000000E+08
 Magnetic constant or permeability of vacuum [N/A**2]       1.25663706143592E-06
 Electric constant or permittivity of vacuum [F/m]          8.85418781762039E-12
 Planck constant (h) [J*s]                                  6.62606896000000E-34
 Planck constant (h-bar) [J*s]                              1.05457162825177E-34
 Elementary charge [C]                                      1.60217648700000E-19
 Electron mass [kg]                                         9.10938215000000E-31
 Electron g factor [ ]                                     -2.00231930436220E+00
 Proton mass [kg]                                           1.67262163700000E-27
 Fine-structure constant                                    7.29735253760000E-03
 Rydberg constant [1/m]                                     1.09737315685270E+07
 Avogadro constant [1/mol]                                  6.02214179000000E+23
 Boltzmann constant [J/K]                                   1.38065040000000E-23
 Atomic mass unit [kg]                                      1.66053878200000E-27
 Bohr radius [m]                                            5.29177208590000E-11

 *** Conversion factors ***

 [u] -> [a.u.]                                              1.82288848426455E+03
 [Angstrom] -> [Bohr] = [a.u.]                              1.88972613288564E+00
 [a.u.] = [Bohr] -> [Angstrom]                              5.29177208590000E-01
 [a.u.] -> [s]                                              2.41888432650478E-17
 [a.u.] -> [fs]                                             2.41888432650478E-02
 [a.u.] -> [J]                                              4.35974393937059E-18
 [a.u.] -> [N]                                              8.23872205491840E-08
 [a.u.] -> [K]                                              3.15774647902944E+05
 [a.u.] -> [kJ/mol]                                         2.62549961709828E+03
 [a.u.] -> [kcal/mol]                                       6.27509468713739E+02
 [a.u.] -> [Pa]                                             2.94210107994716E+13
 [a.u.] -> [bar]                                            2.94210107994716E+08
 [a.u.] -> [atm]                                            2.90362800883016E+08
 [a.u.] -> [eV]                                             2.72113838565563E+01
 [a.u.] -> [Hz]                                             6.57968392072181E+15
 [a.u.] -> [1/cm] (wave numbers)                            2.19474631370540E+05
 [a.u./Bohr**2] -> [1/cm]                                   5.14048714338585E+03
 

 CELL_TOP| Volume [angstrom^3]:                                      4096.000000
 CELL_TOP| Vector a [angstrom    16.000     0.000     0.000   |a| =    16.000000
 CELL_TOP| Vector b [angstrom     0.000    16.000     0.000   |b| =    16.000000
 CELL_TOP| Vector c [angstrom     0.000     0.000    16.000   |c| =    16.000000
 CELL_TOP| Angle (b,c), alpha [degree]:                                90.000000
 CELL_TOP| Angle (a,c), beta  [degree]:                                90.000000
 CELL_TOP| Angle (a,b), gamma [degree]:                                90.000000
 CELL_TOP| Numerically orthorhombic:                                         YES

 GENERATE|  Preliminary Number of Bonds generated:                             0
 GENERATE|  Achieved consistency in connectivity generation.

 CELL| Volume [angstrom^3]:                                          4096.000000
 CELL| Vector a [angstrom]:      16.000     0.000     0.000   |a| =    16.000000
 CELL| Vector b [angstrom]:       0.000    16.000     0.000   |b| =    16.000000
 CELL| Vector c [angstrom]:       0.000     0.000    16.000   |c| =    16.000000
 CELL| Angle (b,c), alpha [degree]:                                    90.000000
 CELL| Angle (a,c), beta  [degree]:                                    90.000000
 CELL| Angle (a,b), gamma [degree]:                                    90.000000
 CELL| Numerically orthorhombic:                                             YES

 CELL_REF| Volume [angstrom^3]:                                      4096.000000
 CELL_REF| Vector a [angstrom    16.000     0.000     0.000   |a| =    16.000000
 CELL_REF| Vector b [angstrom     0.000    16.000     0.000   |b| =    16.000000
 CELL_REF| Vector c [angstrom     0.000     0.000    16.000   |c| =    16.000000
 CELL_REF| Angle (b,c), alpha [degree]:                                90.000000
 CELL_REF| Angle (a,c), beta  [degree]:                                90.000000
 CELL_REF| Angle (a,b), gamma [degree]:                                90.000000
 CELL_REF| Numerically orthorhombic:                                         YES

 *******************************************************************************
 *******************************************************************************
 **                                                                           **
 **     #####                         ##              ##                      **
 **    ##   ##            ##          ##              ##                      **
 **   ##     ##                       ##            ######                    **
 **   ##     ##  ##   ##  ##   #####  ##  ##   ####   ##    #####    #####    **
 **   ##     ##  ##   ##  ##  ##      ## ##   ##      ##   ##   ##  ##   ##   **
 **   ##  ## ##  ##   ##  ##  ##      ####     ###    ##   ######   ######    **
 **    ##  ###   ##   ##  ##  ##      ## ##      ##   ##   ##       ##        **
 **     #######   #####   ##   #####  ##  ##  ####    ##    #####   ##        **
 **           ##                                                    ##        **
 **                                                                           **
 **                                                ... make the atoms dance   **
 **                                                                           **
 **            Copyright (C) by CP2K developers group (2000-2021)             **
 **                      J. Chem. Phys. 152, 194103 (2020)                    **
 **                                                                           **
 *******************************************************************************

 DFT| Spin restricted Kohn-Sham (RKS) calculation                            RKS
 DFT| Multiplicity                                                             1
 DFT| Number of spin states                                                    1
 DFT| Charge                                                                   0
 DFT| Self-interaction correction (SIC)                                       NO
 DFT| Cutoffs: density                                              1.000000E-10
 DFT|          gradient                                             1.000000E-10
 DFT|          tau                                                  1.000000E-10
 DFT|          cutoff_smoothing_range                               0.000000E+00
 DFT| XC density smoothing                                                  NONE
 DFT| XC derivatives                                                          PW
 FUNCTIONAL| ROUTINE=NEW
 FUNCTIONAL| PBE:
 FUNCTIONAL| J.P.Perdew, K.Burke, M.Ernzerhof, Phys. Rev. Letter, vol. 77, n 18,
 FUNCTIONAL|  pp. 3865-3868, (1996){spin unpolarized}                           
 vdW POTENTIAL|                                                   Pair Potential
 vdW POTENTIAL|          DFT-D3 (Version 3.1)
 vdW POTENTIAL|          Potential Form: S. Grimme et al, JCP 132: 154104 (2010)
 vdW POTENTIAL|          Zero Damping
 vdW POTENTIAL|          Cutoff Radius [Bohr]:                             20.00
 vdW POTENTIAL|          s6 Scaling Factor:                               1.0000
 vdW POTENTIAL|          sr6 Scaling Factor:                              1.2170
 vdW POTENTIAL|          s8 Scaling Factor:                               0.7220
 vdW POTENTIAL|          Cutoff for CN calculation:                   0.1000E-05

 QS| Method:                                                                 GPW
 QS| Density plane wave grid type                        NON-SPHERICAL FULLSPACE
 QS| Number of grid levels:                                                    5
 QS| Density cutoff [a.u.]:                                                275.0
 QS| Multi grid cutoff [a.u.]: 1) grid level                               275.0
 QS|                           2) grid level                                91.7
 QS|                           3) grid level                                30.6
 QS|                           4) grid level                                10.2
 QS|                           5) grid level                                 3.4
 QS| Grid level progression factor:                                          3.0
 QS| Relative density cutoff [a.u.]:                                        40.0
 QS| Interaction thresholds: eps_pgf_orb:                                1.0E-06
 QS|                         eps_filter_matrix:                          0.0E+00
 QS|                         eps_core_charge:                            1.0E-14
 QS|                         eps_rho_gspace:                             1.0E-12
 QS|                         eps_rho_rspace:                             1.0E-12
 QS|                         eps_gvg_rspace:                             1.0E-06
 QS|                         eps_ppl:                                    1.0E-02
 QS|                         eps_ppnl:                                   1.0E-08


 ATOMIC KIND INFORMATION

  1. Atomic kind: C                                     Number of atoms:       1

     Orbital Basis Set                                   TZV2P-MOLOPT-PBE-GTH-q4

       Number of orbital shell sets:                                           1
       Number of orbital shells:                                               9
       Number of primitive Cartesian functions:                                5
       Number of Cartesian basis functions:                                   34
       Number of spherical basis functions:                                   29
       Norm type:                                                              2

       Normalised Cartesian orbitals:

                        Set   Shell   Orbital            Exponent    Coefficient

                          1       1    2s                5.599010      -0.388516
                                                         2.008517      -0.222960
                                                         0.755557       0.256069
                                                         0.292158       0.177682
                                                         0.105328       0.019401

                          1       2    3s                5.599010       0.700337
                                                         2.008517       0.202467
                                                         0.755557      -0.073086
                                                         0.292158      -0.004274
                                                         0.105328       0.122810

                          1       3    4s                5.599010      -2.176345
                                                         2.008517      -0.220775
                                                         0.755557       0.109238
                                                         0.292158      -0.129517
                                                         0.105328       0.038801

                          1       4    3px               5.599010      -0.769001
                                                         2.008517      -0.634471
                                                         0.755557      -0.400220
                                                         0.292158      -0.124705
                                                         0.105328      -0.014325
                          1       4    3py               5.599010      -0.769001
                                                         2.008517      -0.634471
                                                         0.755557      -0.400220
                                                         0.292158      -0.124705
                                                         0.105328      -0.014325
                          1       4    3pz               5.599010      -0.769001
                                                         2.008517      -0.634471
                                                         0.755557      -0.400220
                                                         0.292158      -0.124705
                                                         0.105328      -0.014325

                          1       5    4px               5.599010       0.895802
                                                         2.008517       0.817480
                                                         0.755557       0.269326
                                                         0.292158       0.009009
                                                         0.105328      -0.085852
                          1       5    4py               5.599010       0.895802
                                                         2.008517       0.817480
                                                         0.755557       0.269326
                                                         0.292158       0.009009
                                                         0.105328      -0.085852
                          1       5    4pz               5.599010       0.895802
                                                         2.008517       0.817480
                                                         0.755557       0.269326
                                                         0.292158       0.009009
                                                         0.105328      -0.085852

                          1       6    5px               5.599010       1.029767
                                                         2.008517       2.903527
                                                         0.755557       0.336187
                                                         0.292158      -0.258025
                                                         0.105328       0.023472
                          1       6    5py               5.599010       1.029767
                                                         2.008517       2.903527
                                                         0.755557       0.336187
                                                         0.292158      -0.258025
                                                         0.105328       0.023472
                          1       6    5pz               5.599010       1.029767
                                                         2.008517       2.903527
                                                         0.755557       0.336187
                                                         0.292158      -0.258025
                                                         0.105328       0.023472

                          1       7    4dx2              5.599010      -4.629244
                                                         2.008517       1.670071
                                                         0.755557       0.309368
                                                         0.292158       0.124707
                                                         0.105328      -0.001260
                          1       7    4dxy              5.599010      -8.018085
                                                         2.008517       2.892648
                                                         0.755557       0.535841
                                                         0.292158       0.215998
                                                         0.105328      -0.002182
                          1       7    4dxz              5.599010      -8.018085
                                                         2.008517       2.892648
                                                         0.755557       0.535841
                                                         0.292158       0.215998
                                                         0.105328      -0.002182
                          1       7    4dy2              5.599010      -4.629244
                                                         2.008517       1.670071
                                                         0.755557       0.309368
                                                         0.292158       0.124707
                                                         0.105328      -0.001260
                          1       7    4dyz              5.599010      -8.018085
                                                         2.008517       2.892648
                                                         0.755557       0.535841
                                                         0.292158       0.215998
                                                         0.105328      -0.002182
                          1       7    4dz2              5.599010      -4.629244
                                                         2.008517       1.670071
                                                         0.755557       0.309368
                                                         0.292158       0.124707
                                                         0.105328      -0.001260

                          1       8    5dx2              5.599010      -0.765539
                                                         2.008517       0.044731
                                                         0.755557       0.033894
                                                         0.292158       0.006499
                                                         0.105328       0.031042
                          1       8    5dxy              5.599010      -1.325952
                                                         2.008517       0.077477
                                                         0.755557       0.058707
                                                         0.292158       0.011257
                                                         0.105328       0.053766
                          1       8    5dxz              5.599010      -1.325952
                                                         2.008517       0.077477
                                                         0.755557       0.058707
                                                         0.292158       0.011257
                                                         0.105328       0.053766
                          1       8    5dy2              5.599010      -0.765539
                                                         2.008517       0.044731
                                                         0.755557       0.033894
                                                         0.292158       0.006499
                                                         0.105328       0.031042
                          1       8    5dyz              5.599010      -1.325952
                                                         2.008517       0.077477
                                                         0.755557       0.058707
                                                         0.292158       0.011257
                                                         0.105328       0.053766
                          1       8    5dz2              5.599010      -0.765539
                                                         2.008517       0.044731
                                                         0.755557       0.033894
                                                         0.292158       0.006499
                                                         0.105328       0.031042

                          1       9    5fx3              5.599010      -0.150044
                                                         2.008517      -0.042629
                                                         0.755557       0.009866
                                                         0.292158       0.091648
                                                         0.105328       0.000020
                          1       9    5fx2y             5.599010      -0.335509
                                                         2.008517      -0.095321
                                                         0.755557       0.022061
                                                         0.292158       0.204931
                                                         0.105328       0.000045
                          1       9    5fx2z             5.599010      -0.335509
                                                         2.008517      -0.095321
                                                         0.755557       0.022061
                                                         0.292158       0.204931
                                                         0.105328       0.000045
                          1       9    5fxy2             5.599010      -0.335509
                                                         2.008517      -0.095321
                                                         0.755557       0.022061
                                                         0.292158       0.204931
                                                         0.105328       0.000045
                          1       9    5fxyz             5.599010      -0.581119
                                                         2.008517      -0.165100
                                                         0.755557       0.038210
                                                         0.292158       0.354951
                                                         0.105328       0.000078
                          1       9    5fxz2             5.599010      -0.335509
                                                         2.008517      -0.095321
                                                         0.755557       0.022061
                                                         0.292158       0.204931
                                                         0.105328       0.000045
                          1       9    5fy3              5.599010      -0.150044
                                                         2.008517      -0.042629
                                                         0.755557       0.009866
                                                         0.292158       0.091648
                                                         0.105328       0.000020
                          1       9    5fy2z             5.599010      -0.335509
                                                         2.008517      -0.095321
                                                         0.755557       0.022061
                                                         0.292158       0.204931
                                                         0.105328       0.000045
                          1       9    5fyz2             5.599010      -0.335509
                                                         2.008517      -0.095321
                                                         0.755557       0.022061
                                                         0.292158       0.204931
                                                         0.105328       0.000045
                          1       9    5fz3              5.599010      -0.150044
                                                         2.008517      -0.042629
                                                         0.755557       0.009866
                                                         0.292158       0.091648
                                                         0.105328       0.000020

       Atomic covalent radius [Angstrom]:                                  0.770

       Atomic van der Waals radius [Angstrom]:                             1.700

     GTH Potential information for                                    GTH-PBE-q4

       Description:                       Goedecker-Teter-Hutter pseudopotential
                                           Goedecker et al., PRB 54, 1703 (1996)
                                          Hartwigsen et al., PRB 58, 3641 (1998)
                                                      Krack, TCA 114, 145 (2005)

       Gaussian exponent of the core charge distribution:               4.362265
       Electronic configuration (s p d ...):                       2   2   0   0

       Parameters of the local part of the GTH pseudopotential:

                          rloc        C1          C2          C3          C4
                        0.338555   -8.804552    1.338377

       Parameters of the non-local part of the GTH pseudopotential:

                   l      r(l)      h(i,j,l)

                   0    0.302610    9.622862

  2. Atomic kind: O                                     Number of atoms:     114

     Orbital Basis Set                                   TZV2P-MOLOPT-PBE-GTH-q6

       Number of orbital shell sets:                                           1
       Number of orbital shells:                                               9
       Number of primitive Cartesian functions:                                5
       Number of Cartesian basis functions:                                   34
       Number of spherical basis functions:                                   29
       Norm type:                                                              2

       Normalised Cartesian orbitals:

                        Set   Shell   Orbital            Exponent    Coefficient

                          1       1    2s               10.277042      -0.485504
                                                         3.564053      -0.220015
                                                         1.313636       0.373321
                                                         0.488903       0.264765
                                                         0.155332       0.020043

                          1       2    3s               10.277042       0.224066
                                                         3.564053       0.080746
                                                         1.313636      -0.123482
                                                         0.488903      -0.035459
                                                         0.155332       0.195554

                          1       3    4s               10.277042      -3.846583
                                                         3.564053      -0.604002
                                                         1.313636       0.878850
                                                         0.488903      -0.388670
                                                         0.155332       0.020403

                          1       4    3px              10.277042      -1.528218
                                                         3.564053      -1.277699
                                                         1.313636      -0.654740
                                                         0.488903      -0.229926
                                                         0.155332      -0.043447
                          1       4    3py              10.277042      -1.528218
                                                         3.564053      -1.277699
                                                         1.313636      -0.654740
                                                         0.488903      -0.229926
                                                         0.155332      -0.043447
                          1       4    3pz              10.277042      -1.528218
                                                         3.564053      -1.277699
                                                         1.313636      -0.654740
                                                         0.488903      -0.229926
                                                         0.155332      -0.043447

                          1       5    4px              10.277042       2.036465
                                                         3.564053       1.678955
                                                         1.313636       0.821025
                                                         0.488903       0.173956
                                                         0.155332      -0.133459
                          1       5    4py              10.277042       2.036465
                                                         3.564053       1.678955
                                                         1.313636       0.821025
                                                         0.488903       0.173956
                                                         0.155332      -0.133459
                          1       5    4pz              10.277042       2.036465
                                                         3.564053       1.678955
                                                         1.313636       0.821025
                                                         0.488903       0.173956
                                                         0.155332      -0.133459

                          1       6    5px              10.277042       4.160760
                                                         3.564053       3.839534
                                                         1.313636       1.365137
                                                         0.488903      -0.557232
                                                         0.155332       0.019989
                          1       6    5py              10.277042       4.160760
                                                         3.564053       3.839534
                                                         1.313636       1.365137
                                                         0.488903      -0.557232
                                                         0.155332       0.019989
                          1       6    5pz              10.277042       4.160760
                                                         3.564053       3.839534
                                                         1.313636       1.365137
                                                         0.488903      -0.557232
                                                         0.155332       0.019989

                          1       7    4dx2             10.277042      -5.653729
                                                         3.564053       2.384130
                                                         1.313636       0.763128
                                                         0.488903       0.368121
                                                         0.155332      -0.007951
                          1       7    4dxy             10.277042      -9.792547
                                                         3.564053       4.129435
                                                         1.313636       1.321776
                                                         0.488903       0.637605
                                                         0.155332      -0.013772
                          1       7    4dxz             10.277042      -9.792547
                                                         3.564053       4.129435
                                                         1.313636       1.321776
                                                         0.488903       0.637605
                                                         0.155332      -0.013772
                          1       7    4dy2             10.277042      -5.653729
                                                         3.564053       2.384130
                                                         1.313636       0.763128
                                                         0.488903       0.368121
                                                         0.155332      -0.007951
                          1       7    4dyz             10.277042      -9.792547
                                                         3.564053       4.129435
                                                         1.313636       1.321776
                                                         0.488903       0.637605
                                                         0.155332      -0.013772
                          1       7    4dz2             10.277042      -5.653729
                                                         3.564053       2.384130
                                                         1.313636       0.763128
                                                         0.488903       0.368121
                                                         0.155332      -0.007951

                          1       8    5dx2             10.277042      -1.240143
                                                         3.564053       0.370203
                                                         1.313636       0.144297
                                                         0.488903       0.056503
                                                         0.155332       0.057456
                          1       8    5dxy             10.277042      -2.147990
                                                         3.564053       0.641211
                                                         1.313636       0.249929
                                                         0.488903       0.097865
                                                         0.155332       0.099516
                          1       8    5dxz             10.277042      -2.147990
                                                         3.564053       0.641211
                                                         1.313636       0.249929
                                                         0.488903       0.097865
                                                         0.155332       0.099516
                          1       8    5dy2             10.277042      -1.240143
                                                         3.564053       0.370203
                                                         1.313636       0.144297
                                                         0.488903       0.056503
                                                         0.155332       0.057456
                          1       8    5dyz             10.277042      -2.147990
                                                         3.564053       0.641211
                                                         1.313636       0.249929
                                                         0.488903       0.097865
                                                         0.155332       0.099516
                          1       8    5dz2             10.277042      -1.240143
                                                         3.564053       0.370203
                                                         1.313636       0.144297
                                                         0.488903       0.056503
                                                         0.155332       0.057456

                          1       9    5fx3             10.277042      -6.690350
                                                         3.564053       0.340627
                                                         1.313636       0.043047
                                                         0.488903       0.291962
                                                         0.155332      -0.000154
                          1       9    5fx2y            10.277042     -14.960077
                                                         3.564053       0.761664
                                                         1.313636       0.096256
                                                         0.488903       0.652848
                                                         0.155332      -0.000345
                          1       9    5fx2z            10.277042     -14.960077
                                                         3.564053       0.761664
                                                         1.313636       0.096256
                                                         0.488903       0.652848
                                                         0.155332      -0.000345
                          1       9    5fxy2            10.277042     -14.960077
                                                         3.564053       0.761664
                                                         1.313636       0.096256
                                                         0.488903       0.652848
                                                         0.155332      -0.000345
                          1       9    5fxyz            10.277042     -25.911613
                                                         3.564053       1.319241
                                                         1.313636       0.166721
                                                         0.488903       1.130766
                                                         0.155332      -0.000597
                          1       9    5fxz2            10.277042     -14.960077
                                                         3.564053       0.761664
                                                         1.313636       0.096256
                                                         0.488903       0.652848
                                                         0.155332      -0.000345
                          1       9    5fy3             10.277042      -6.690350
                                                         3.564053       0.340627
                                                         1.313636       0.043047
                                                         0.488903       0.291962
                                                         0.155332      -0.000154
                          1       9    5fy2z            10.277042     -14.960077
                                                         3.564053       0.761664
                                                         1.313636       0.096256
                                                         0.488903       0.652848
                                                         0.155332      -0.000345
                          1       9    5fyz2            10.277042     -14.960077
                                                         3.564053       0.761664
                                                         1.313636       0.096256
                                                         0.488903       0.652848
                                                         0.155332      -0.000345
                          1       9    5fz3             10.277042      -6.690350
                                                         3.564053       0.340627
                                                         1.313636       0.043047
                                                         0.488903       0.291962
                                                         0.155332      -0.000154

       Atomic covalent radius [Angstrom]:                                  0.730

       Atomic van der Waals radius [Angstrom]:                             1.520

     GTH Potential information for                                    GTH-PBE-q6

       Description:                       Goedecker-Teter-Hutter pseudopotential
                                           Goedecker et al., PRB 54, 1703 (1996)
                                          Hartwigsen et al., PRB 58, 3641 (1998)
                                                      Krack, TCA 114, 145 (2005)

       Gaussian exponent of the core charge distribution:               8.366479
       Electronic configuration (s p d ...):                       2   4   0   0

       Parameters of the local part of the GTH pseudopotential:

                          rloc        C1          C2          C3          C4
                        0.244463  -16.675482    2.489086

       Parameters of the non-local part of the GTH pseudopotential:

                   l      r(l)      h(i,j,l)

                   0    0.220971   18.334469

  3. Atomic kind: P                                     Number of atoms:       1

     Orbital Basis Set                                   TZV2P-MOLOPT-PBE-GTH-q5

       Number of orbital shell sets:                                           1
       Number of orbital shells:                                               9
       Number of primitive Cartesian functions:                                4
       Number of Cartesian basis functions:                                   34
       Number of spherical basis functions:                                   29
       Norm type:                                                              2

       Normalised Cartesian orbitals:

                        Set   Shell   Orbital            Exponent    Coefficient

                          1       1    2s                1.529974       0.330831
                                                         0.572156      -0.121865
                                                         0.221473      -0.178453
                                                         0.075885      -0.020408

                          1       2    3s                1.529974       0.353664
                                                         0.572156      -0.203423
                                                         0.221473       0.005821
                                                         0.075885       0.111796

                          1       3    4s                1.529974      -1.067157
                                                         0.572156       0.214068
                                                         0.221473      -0.177211
                                                         0.075885       0.057956

                          1       4    3px               1.529974       0.268378
                                                         0.572156      -0.381409
                                                         0.221473      -0.118831
                                                         0.075885      -0.003877
                          1       4    3py               1.529974       0.268378
                                                         0.572156      -0.381409
                                                         0.221473      -0.118831
                                                         0.075885      -0.003877
                          1       4    3pz               1.529974       0.268378
                                                         0.572156      -0.381409
                                                         0.221473      -0.118831
                                                         0.075885      -0.003877

                          1       5    4px               1.529974       0.260904
                                                         0.572156      -0.330883
                                                         0.221473       0.080611
                                                         0.075885       0.048633
                          1       5    4py               1.529974       0.260904
                                                         0.572156      -0.330883
                                                         0.221473       0.080611
                                                         0.075885       0.048633
                          1       5    4pz               1.529974       0.260904
                                                         0.572156      -0.330883
                                                         0.221473       0.080611
                                                         0.075885       0.048633

                          1       6    5px               1.529974       0.623329
                                                         0.572156       0.730611
                                                         0.221473      -0.234303
                                                         0.075885       0.056701
                          1       6    5py               1.529974       0.623329
                                                         0.572156       0.730611
                                                         0.221473      -0.234303
                                                         0.075885       0.056701
                          1       6    5pz               1.529974       0.623329
                                                         0.572156       0.730611
                                                         0.221473      -0.234303
                                                         0.075885       0.056701

                          1       7    4dx2              1.529974       0.641565
                                                         0.572156       0.349115
                                                         0.221473       0.047365
                                                         0.075885       0.000033
                          1       7    4dxy              1.529974       1.111223
                                                         0.572156       0.604685
                                                         0.221473       0.082039
                                                         0.075885       0.000058
                          1       7    4dxz              1.529974       1.111223
                                                         0.572156       0.604685
                                                         0.221473       0.082039
                                                         0.075885       0.000058
                          1       7    4dy2              1.529974       0.641565
                                                         0.572156       0.349115
                                                         0.221473       0.047365
                                                         0.075885       0.000033
                          1       7    4dyz              1.529974       1.111223
                                                         0.572156       0.604685
                                                         0.221473       0.082039
                                                         0.075885       0.000058
                          1       7    4dz2              1.529974       0.641565
                                                         0.572156       0.349115
                                                         0.221473       0.047365
                                                         0.075885       0.000033

                          1       8    5dx2              1.529974      -0.416790
                                                         0.572156       0.702038
                                                         0.221473      -0.180280
                                                         0.075885       0.002500
                          1       8    5dxy              1.529974      -0.721901
                                                         0.572156       1.215965
                                                         0.221473      -0.312254
                                                         0.075885       0.004331
                          1       8    5dxz              1.529974      -0.721901
                                                         0.572156       1.215965
                                                         0.221473      -0.312254
                                                         0.075885       0.004331
                          1       8    5dy2              1.529974      -0.416790
                                                         0.572156       0.702038
                                                         0.221473      -0.180280
                                                         0.075885       0.002500
                          1       8    5dyz              1.529974      -0.721901
                                                         0.572156       1.215965
                                                         0.221473      -0.312254
                                                         0.075885       0.004331
                          1       8    5dz2              1.529974      -0.416790
                                                         0.572156       0.702038
                                                         0.221473      -0.180280
                                                         0.075885       0.002500

                          1       9    5fx3              1.529974       0.452264
                                                         0.572156       0.259688
                                                         0.221473       0.022786
                                                         0.075885      -0.000501
                          1       9    5fx2y             1.529974       1.011293
                                                         0.572156       0.580680
                                                         0.221473       0.050951
                                                         0.075885      -0.001120
                          1       9    5fx2z             1.529974       1.011293
                                                         0.572156       0.580680
                                                         0.221473       0.050951
                                                         0.075885      -0.001120
                          1       9    5fxy2             1.529974       1.011293
                                                         0.572156       0.580680
                                                         0.221473       0.050951
                                                         0.075885      -0.001120
                          1       9    5fxyz             1.529974       1.751610
                                                         0.572156       1.005767
                                                         0.221473       0.088251
                                                         0.075885      -0.001939
                          1       9    5fxz2             1.529974       1.011293
                                                         0.572156       0.580680
                                                         0.221473       0.050951
                                                         0.075885      -0.001120
                          1       9    5fy3              1.529974       0.452264
                                                         0.572156       0.259688
                                                         0.221473       0.022786
                                                         0.075885      -0.000501
                          1       9    5fy2z             1.529974       1.011293
                                                         0.572156       0.580680
                                                         0.221473       0.050951
                                                         0.075885      -0.001120
                          1       9    5fyz2             1.529974       1.011293
                                                         0.572156       0.580680
                                                         0.221473       0.050951
                                                         0.075885      -0.001120
                          1       9    5fz3              1.529974       0.452264
                                                         0.572156       0.259688
                                                         0.221473       0.022786
                                                         0.075885      -0.000501

       Atomic covalent radius [Angstrom]:                                  1.060

       Atomic van der Waals radius [Angstrom]:                             1.800

     GTH Potential information for                                    GTH-PBE-q5

       Description:                       Goedecker-Teter-Hutter pseudopotential
                                           Goedecker et al., PRB 54, 1703 (1996)
                                          Hartwigsen et al., PRB 58, 3641 (1998)
                                                      Krack, TCA 114, 145 (2005)

       Gaussian exponent of the core charge distribution:               2.702572
       Electronic configuration (s p d ...):                       2   3   0   0

       Parameters of the local part of the GTH pseudopotential:

                          rloc        C1          C2          C3          C4
                        0.430127   -5.862875

       Parameters of the non-local part of the GTH pseudopotential:

                   l      r(l)      h(i,j,l)

                   0    0.396379   11.009068   -3.470357
                                   -3.470357    4.480230
                   1    0.448294    3.056058

  4. Atomic kind: H                                     Number of atoms:     225

     Orbital Basis Set                                   TZV2P-MOLOPT-PBE-GTH-q1

       Number of orbital shell sets:                                           1
       Number of orbital shells:                                               6
       Number of primitive Cartesian functions:                                5
       Number of Cartesian basis functions:                                   15
       Number of spherical basis functions:                                   14
       Norm type:                                                              2

       Normalised Cartesian orbitals:

                        Set   Shell   Orbital            Exponent    Coefficient

                          1       1    2s                9.586642       0.069481
                                                         2.202360       0.112147
                                                         0.604094       0.130550
                                                         0.146498       0.088477
                                                         0.139526       0.035929

                          1       2    3s                9.586642      -0.087313
                                                         2.202360      -0.117928
                                                         0.604094      -0.099372
                                                         0.146498      -0.105375
                                                         0.139526       0.287433

                          1       3    4s                9.586642       0.882480
                                                         2.202360       0.096105
                                                         0.604094      -0.739894
                                                         0.146498       0.120904
                                                         0.139526       0.013904

                          1       4    3px               9.586642      -2.186125
                                                         2.202360       1.112625
                                                         0.604094       0.330981
                                                         0.146498       0.087385
                                                         0.139526      -0.016905
                          1       4    3py               9.586642      -2.186125
                                                         2.202360       1.112625
                                                         0.604094       0.330981
                                                         0.146498       0.087385
                                                         0.139526      -0.016905
                          1       4    3pz               9.586642      -2.186125
                                                         2.202360       1.112625
                                                         0.604094       0.330981
                                                         0.146498       0.087385
                                                         0.139526      -0.016905

                          1       5    4px               9.586642       1.866908
                                                         2.202360       0.174551
                                                         0.604094       0.060190
                                                         0.146498       0.014182
                                                         0.139526       0.100545
                          1       5    4py               9.586642       1.866908
                                                         2.202360       0.174551
                                                         0.604094       0.060190
                                                         0.146498       0.014182
                                                         0.139526       0.100545
                          1       5    4pz               9.586642       1.866908
                                                         2.202360       0.174551
                                                         0.604094       0.060190
                                                         0.146498       0.014182
                                                         0.139526       0.100545

                          1       6    4dx2              9.586642       0.111501
                                                         2.202360      -0.020603
                                                         0.604094      -0.012612
                                                         0.146498      -0.000171
                                                         0.139526       0.052995
                          1       6    4dxy              9.586642       0.193125
                                                         2.202360      -0.035686
                                                         0.604094      -0.021844
                                                         0.146498      -0.000296
                                                         0.139526       0.091790
                          1       6    4dxz              9.586642       0.193125
                                                         2.202360      -0.035686
                                                         0.604094      -0.021844
                                                         0.146498      -0.000296
                                                         0.139526       0.091790
                          1       6    4dy2              9.586642       0.111501
                                                         2.202360      -0.020603
                                                         0.604094      -0.012612
                                                         0.146498      -0.000171
                                                         0.139526       0.052995
                          1       6    4dyz              9.586642       0.193125
                                                         2.202360      -0.035686
                                                         0.604094      -0.021844
                                                         0.146498      -0.000296
                                                         0.139526       0.091790
                          1       6    4dz2              9.586642       0.111501
                                                         2.202360      -0.020603
                                                         0.604094      -0.012612
                                                         0.146498      -0.000171
                                                         0.139526       0.052995

       Atomic covalent radius [Angstrom]:                                  0.320

       Atomic van der Waals radius [Angstrom]:                             1.090

     GTH Potential information for                                    GTH-PBE-q1

       Description:                       Goedecker-Teter-Hutter pseudopotential
                                           Goedecker et al., PRB 54, 1703 (1996)
                                          Hartwigsen et al., PRB 58, 3641 (1998)
                                                      Krack, TCA 114, 145 (2005)

       Gaussian exponent of the core charge distribution:              12.426182
       Electronic configuration (s p d ...):                       1   0   0   0

       Parameters of the local part of the GTH pseudopotential:

                          rloc        C1          C2          C3          C4
                        0.200593   -4.178068    0.724409


 MOLECULE KIND INFORMATION


 All atoms are their own molecule, skipping detailed information


 TOTAL NUMBERS AND MAXIMUM NUMBERS

  Total number of            - Atomic kinds:                                   4
                             - Atoms:                                        341
                             - Shell sets:                                   341
                             - Shells:                                      2394
                             - Primitive Cartesian functions:               1704
                             - Cartesian basis functions:                   7319
                             - Spherical basis functions:                   6514

  Maximum angular momentum of- Orbital basis functions:                        3
                             - Local part of the GTH pseudopotential:          2
                             - Non-local part of the GTH pseudopotential:      2


 MODULE QUICKSTEP:  ATOMIC COORDINATES IN angstrom

 Atom  Kind  Element       X           Y           Z          Z(eff)       Mass
    1   1 C    6      10.434230    8.268220    7.838910       4.0000     12.0107
    2   2 O    8       9.665040    7.529750    8.824509       6.0000     15.9994
    3   3 P   15       9.113190    6.045980    8.585600       5.0000     30.9738
    4   2 O    8      10.371450    5.127810    8.252229       6.0000     15.9994
    5   2 O    8       8.390910    6.113470    7.165040       6.0000     15.9994
    6   2 O    8       8.268020    5.602130    9.702840       6.0000     15.9994
    7   4 H    1       9.852910    9.147910    7.538670       1.0000      1.0079
    8   4 H    1      10.661240    7.654220    6.962090       1.0000      1.0079
    9   4 H    1      11.364690    8.581230    8.329550       1.0000      1.0079
   10   4 H    1      10.888620    5.100750    9.127530       1.0000      1.0079
   11   4 H    1       7.665160    6.810450    7.267500       1.0000      1.0079
   12   2 O    8       2.486500    6.800000    1.422000       6.0000     15.9994
   13   4 H    1       2.423500    7.592000    0.889000       1.0000      1.0079
   14   4 H    1       3.421500    6.705000    1.602000       1.0000      1.0079
   15   2 O    8       4.187500    8.378000   12.708999       6.0000     15.9994
   16   4 H    1       3.345500    8.776000   12.930000       1.0000      1.0079
   17   4 H    1       4.037500    7.437000   12.799000       1.0000      1.0079
   18   2 O    8      10.717500    9.896000    4.632000       6.0000     15.9994
   19   4 H    1      10.179500    9.608000    3.894000       1.0000      1.0079
   20   4 H    1      11.354500    9.192000    4.754000       1.0000      1.0079
   21   2 O    8       2.115500    3.681000    1.037000       6.0000     15.9994
   22   4 H    1       2.760500    3.057000    0.704000       1.0000      1.0079
   23   4 H    1       2.638500    4.412000    1.369000       1.0000      1.0079
   24   2 O    8       1.377500    3.064000   14.454000       6.0000     15.9994
   25   4 H    1       2.221500    2.759000   14.786000       1.0000      1.0079
   26   4 H    1       0.729500    2.573000   14.958999       1.0000      1.0079
   27   2 O    8       1.968500   10.513000    9.399000       6.0000     15.9994
   28   4 H    1       1.695500   11.288000    9.890000       1.0000      1.0079
   29   4 H    1       2.324500   10.861000    8.581000       1.0000      1.0079
   30   2 O    8       6.456500    3.843000   13.373999       6.0000     15.9994
   31   4 H    1       6.407500    3.307000   12.583000       1.0000      1.0079
   32   4 H    1       6.519500    4.742000   13.052000       1.0000      1.0079
   33   2 O    8       1.933500    0.267000    5.437000       6.0000     15.9994
   34   4 H    1       1.956500    0.132000    6.384000       1.0000      1.0079
   35   4 H    1       1.014500    0.143000    5.199000       1.0000      1.0079
   36   2 O    8      11.134499    5.718000    5.421000       6.0000     15.9994
   37   4 H    1      11.788500    5.229000    4.923000       1.0000      1.0079
   38   4 H    1      11.227500    5.398000    6.318000       1.0000      1.0079
   39   2 O    8       2.798500    9.829000    2.096000       6.0000     15.9994
   40   4 H    1       2.576500    9.027000    2.569000       1.0000      1.0079
   41   4 H    1       2.862500    9.557000    1.180000       1.0000      1.0079
   42   2 O    8       9.844499   14.045000    7.843000       6.0000     15.9994
   43   4 H    1       9.167499   14.079000    8.520000       1.0000      1.0079
   44   4 H    1      10.610500   13.683000    8.288999       1.0000      1.0079
   45   2 O    8       4.429500   12.668000    9.477999       6.0000     15.9994
   46   4 H    1       4.639500   12.081000   10.205000       1.0000      1.0079
   47   4 H    1       5.280500   12.973000    9.162000       1.0000      1.0079
   48   2 O    8       2.121500   14.769000    4.972000       6.0000     15.9994
   49   4 H    1       2.148500   13.901000    4.570000       1.0000      1.0079
   50   4 H    1       3.029500   14.947000    5.219000       1.0000      1.0079
   51   2 O    8      12.325499    9.647000    2.294000       6.0000     15.9994
   52   4 H    1      12.170500    8.704000    2.347000       1.0000      1.0079
   53   4 H    1      12.229500    9.957000    3.195000       1.0000      1.0079
   54   2 O    8       8.733499    4.957000    1.134000       6.0000     15.9994
   55   4 H    1       9.034500    5.721000    0.642000       1.0000      1.0079
   56   4 H    1       8.213500    4.456000    0.506000       1.0000      1.0079
   57   2 O    8      14.715500    5.885000   14.894000       6.0000     15.9994
   58   4 H    1      14.119500    5.243000   15.280000       1.0000      1.0079
   59   4 H    1      15.365500    5.359000   14.427000       1.0000      1.0079
   60   2 O    8       9.391500    5.208000   13.187000       6.0000     15.9994
   61   4 H    1       9.731500    5.862000   13.799000       1.0000      1.0079
   62   4 H    1       8.510500    5.515000   12.972999       1.0000      1.0079
   63   2 O    8      12.309500    3.752000    3.834000       6.0000     15.9994
   64   4 H    1      11.681500    3.331000    3.248000       1.0000      1.0079
   65   4 H    1      12.881500    3.041000    4.124000       1.0000      1.0079
   66   2 O    8       5.400500    6.769000    2.341000       6.0000     15.9994
   67   4 H    1       6.110500    6.478000    2.915000       1.0000      1.0079
   68   4 H    1       5.695500    6.539000    1.460000       1.0000      1.0079
   69   2 O    8       6.693500   11.454000    4.470000       6.0000     15.9994
   70   4 H    1       7.590500   11.267000    4.747000       1.0000      1.0079
   71   4 H    1       6.525500   10.831000    3.763000       1.0000      1.0079
   72   2 O    8       0.839500    0.203000    8.726000       6.0000     15.9994
   73   4 H    1       0.635500    1.086000    8.418000       1.0000      1.0079
   74   4 H    1       1.382500    0.338000    9.502000       1.0000      1.0079
   75   2 O    8      15.307500    3.789000   10.906000       6.0000     15.9994
   76   4 H    1      14.526500    3.583000   10.391000       1.0000      1.0079
   77   4 H    1      15.601499    4.635000   10.568000       1.0000      1.0079
   78   2 O    8       9.439500   12.606000    5.239000       6.0000     15.9994
   79   4 H    1       9.337500   12.671000    6.188000       1.0000      1.0079
   80   4 H    1       9.852500   11.754000    5.100000       1.0000      1.0079
   81   2 O    8       6.124500    1.138000    5.318000       6.0000     15.9994
   82   4 H    1       6.773500    1.835000    5.219000       1.0000      1.0079
   83   4 H    1       5.281500    1.577000    5.206000       1.0000      1.0079
   84   2 O    8       4.690500    1.332000   15.340000       6.0000     15.9994
   85   4 H    1       4.962500    0.558000   14.847999       1.0000      1.0079
   86   4 H    1       5.076500    2.067000   14.863000       1.0000      1.0079
   87   2 O    8       3.469500   15.208000    2.137000       6.0000     15.9994
   88   4 H    1       2.515500   15.237000    2.211000       1.0000      1.0079
   89   4 H    1       3.734500   14.505000    2.730000       1.0000      1.0079
   90   2 O    8      10.199500   14.195000    2.997000       6.0000     15.9994
   91   4 H    1      10.565500   14.744000    3.690000       1.0000      1.0079
   92   4 H    1      10.019500   13.357000    3.424000       1.0000      1.0079
   93   2 O    8       5.351500    5.310000    5.670000       6.0000     15.9994
   94   4 H    1       5.452500    4.493000    5.182000       1.0000      1.0079
   95   4 H    1       6.155500    5.797000    5.490000       1.0000      1.0079
   96   2 O    8       6.911500   14.297000    4.629000       6.0000     15.9994
   97   4 H    1       6.710500   13.372000    4.488000       1.0000      1.0079
   98   4 H    1       7.846500   14.312000    4.831000       1.0000      1.0079
   99   2 O    8       4.455500    4.099000    2.766000       6.0000     15.9994
  100   4 H    1       4.949500    4.909000    2.893000       1.0000      1.0079
  101   4 H    1       5.067500    3.513000    2.321000       1.0000      1.0079
  102   2 O    8       4.114500    4.996000   10.333999       6.0000     15.9994
  103   4 H    1       4.050500    4.264000    9.720000       1.0000      1.0079
  104   4 H    1       3.721500    5.734000    9.869000       1.0000      1.0079
  105   2 O    8      11.766500   12.447000   13.096000       6.0000     15.9994
  106   4 H    1      11.358499   12.169000   12.276000       1.0000      1.0079
  107   4 H    1      12.692500   12.556000   12.879000       1.0000      1.0079
  108   2 O    8      10.661500    7.398000    2.808000       6.0000     15.9994
  109   4 H    1      10.364500    6.722000    3.418000       1.0000      1.0079
  110   4 H    1      10.123500    7.269000    2.027000       1.0000      1.0079
  111   2 O    8       6.006500   12.899000    1.393000       6.0000     15.9994
  112   4 H    1       6.223500   13.601000    0.780000       1.0000      1.0079
  113   4 H    1       6.773500   12.327000    1.385000       1.0000      1.0079
  114   2 O    8       0.741500   13.989000    1.821000       6.0000     15.9994
  115   4 H    1       0.861500   13.381000    2.551000       1.0000      1.0079
  116   4 H    1       0.078500   13.575000    1.270000       1.0000      1.0079
  117   2 O    8      10.181500   14.544000   13.806000       6.0000     15.9994
  118   4 H    1       9.901500   15.057000   13.048000       1.0000      1.0079
  119   4 H    1      10.779500   13.889000   13.444999       1.0000      1.0079
  120   2 O    8       7.587500   10.330000   12.563000       6.0000     15.9994
  121   4 H    1       8.361500    9.988000   12.116000       1.0000      1.0079
  122   4 H    1       7.843500   11.207000   12.849000       1.0000      1.0079
  123   2 O    8       2.986500    7.523000    9.454000       6.0000     15.9994
  124   4 H    1       2.624500    8.383000    9.666000       1.0000      1.0079
  125   4 H    1       2.240500    6.926000    9.512999       1.0000      1.0079
  126   2 O    8       2.341500   14.166000   11.142000       6.0000     15.9994
  127   4 H    1       2.725500   13.740000   10.376000       1.0000      1.0079
  128   4 H    1       1.829500   13.478000   11.567000       1.0000      1.0079
  129   2 O    8       9.623500    8.656000   11.285000       6.0000     15.9994
  130   4 H    1       8.680500    8.781000   11.175000       1.0000      1.0079
  131   4 H    1       9.877499    8.096000   10.552000       1.0000      1.0079
  132   2 O    8       9.141500   12.509000    0.648000       6.0000     15.9994
  133   4 H    1       9.290500   13.152000    1.341000       1.0000      1.0079
  134   4 H    1       9.982500   12.444000    0.195000       1.0000      1.0079
  135   2 O    8      13.599500    9.541000   12.120000       6.0000     15.9994
  136   4 H    1      14.083500    9.441000   12.939000       1.0000      1.0079
  137   4 H    1      12.737500    9.166000   12.302000       1.0000      1.0079
  138   2 O    8      12.767500    3.548000    6.646000       6.0000     15.9994
  139   4 H    1      12.704500    3.019000    5.850000       1.0000      1.0079
  140   4 H    1      13.365500    4.259000    6.414000       1.0000      1.0079
  141   2 O    8       5.039500    0.804000    8.090999       6.0000     15.9994
  142   4 H    1       4.977500    0.684000    7.143000       1.0000      1.0079
  143   4 H    1       5.959500    1.016000    8.247000       1.0000      1.0079
  144   2 O    8      12.076500   13.180000    8.797000       6.0000     15.9994
  145   4 H    1      12.664500   12.735000    8.188000       1.0000      1.0079
  146   4 H    1      12.561499   13.957000    9.074000       1.0000      1.0079
  147   2 O    8      15.921500   10.281000   10.474000       6.0000     15.9994
  148   4 H    1      15.468500   10.626000    9.704000       1.0000      1.0079
  149   4 H    1      15.225500    9.903000   11.012000       1.0000      1.0079
  150   2 O    8       6.250500   12.054000    7.056000       6.0000     15.9994
  151   4 H    1       6.528500   12.929000    7.328000       1.0000      1.0079
  152   4 H    1       6.111500   12.129000    6.112000       1.0000      1.0079
  153   2 O    8      14.382500    5.615000    5.994000       6.0000     15.9994
  154   4 H    1      14.796500    5.075000    5.321000       1.0000      1.0079
  155   4 H    1      14.690500    6.503000    5.813000       1.0000      1.0079
  156   2 O    8       6.953500    6.316000   11.984999       6.0000     15.9994
  157   4 H    1       6.389500    7.079000   11.858000       1.0000      1.0079
  158   4 H    1       7.320500    6.142000   11.119000       1.0000      1.0079
  159   2 O    8       4.593500   15.053000    5.764000       6.0000     15.9994
  160   4 H    1       5.099500   14.523000    5.148000       1.0000      1.0079
  161   4 H    1       5.135500   15.087000    6.552000       1.0000      1.0079
  162   2 O    8       6.923500   14.487000    8.293000       6.0000     15.9994
  163   4 H    1       6.561500   15.351000    8.491999       1.0000      1.0079
  164   4 H    1       7.356500   14.216000    9.102000       1.0000      1.0079
[...]
     29      4      H           0.01411208     0.01188013    -0.01868355
     30      2      O           0.00381748    -0.00168758     0.04015705
     31      4      H           0.00163371    -0.00936515    -0.01362755
     32      4      H          -0.00105028     0.01595632    -0.01206990
     33      2      O          -0.04911720     0.29576392     0.07743360
     34      4      H          -0.00276960     0.01273451     0.02743762
     35      4      H          -0.00871336     0.00683597     0.00115142
     36      2      O          -0.01278126     0.02848579    -0.01092904
     37      4      H           0.01043625    -0.02185652    -0.01383225
     38      4      H          -0.00025298    -0.00895073     0.01769834
     39      2      O           0.00163909     0.01266265     0.00900331
     40      4      H          -0.00567696    -0.01497741     0.01198098
     41      4      H           0.00581439     0.00507763    -0.01250350
     42      2      O          -0.02014756     0.01721565    -0.02714546
     43      4      H          -0.01238905     0.00197180     0.00526553
     44      4      H           0.03068374    -0.01466160     0.00987079
     45      2      O          -0.01785708     0.00994568    -0.01313719
     46      4      H           0.00174816    -0.01235412     0.01731826
     47      4      H           0.00951515     0.00525380    -0.00834682
     48      2      O           0.02331944    -0.24105094    -0.07592036
     49      4      H           0.00296527    -0.04614180    -0.01911324
     50      4      H           0.02899475    -0.01200433    -0.00181764
     51      2      O           0.01071487     0.00869185    -0.02716792
     52      4      H          -0.00692076    -0.01727835     0.00572416
     53      4      H          -0.00388473     0.00732572     0.01411807
     54      2      O           0.01048094    -0.00139362     0.01684698
     55      4      H           0.00442795     0.01386955    -0.01074046
     56      4      H          -0.01631834    -0.01211872    -0.01356736
     57      2      O          -0.00374597     0.01744392    -0.00360759
     58      4      H          -0.00725572    -0.00903078     0.00524226
     59      4      H           0.01172711    -0.01296956    -0.00754235
     60      2      O           0.01827363    -0.00712732    -0.00270118
     61      4      H           0.00600557     0.00749794     0.00765307
     62      4      H          -0.02322804     0.00969826    -0.00942312
     63      2      O           0.01226071     0.02327269     0.01195753
     64      4      H          -0.02193710    -0.00683137    -0.01991997
     65      4      H           0.01458732    -0.01373803    -0.00086357
     66      2      O          -0.01755114     0.01257000     0.00333265
     67      4      H           0.01462789    -0.00343694     0.01466716
     68      4      H           0.00158769    -0.00705216    -0.02288482
     69      2      O           0.00024960     0.01474657     0.02091425
     70      4      H           0.01443419     0.00182745     0.00781870
     71      4      H          -0.01157423    -0.01053129    -0.02183837
     72      2      O          -0.01051112    -0.00306256    -0.02236335
     73      4      H          -0.00361044     0.01582752    -0.00018284
     74      4      H           0.01297558     0.00006641     0.02677337
     75      2      O           0.01597789    -0.00582611     0.01954167
     76      4      H          -0.01709407    -0.00739020    -0.01786255
     77      4      H           0.00313639     0.01300191    -0.00287729
     78      2      O          -0.00206291     0.00311323    -0.01473395
     79      4      H          -0.00086475     0.00718947     0.02070545
     80      4      H           0.01116203    -0.01837325    -0.00074797
     81      2      O           0.01646024    -0.01306873     0.01391406
     82      4      H           0.00717672     0.01050990    -0.00134837
     83      4      H          -0.02392329     0.01014868    -0.00876862
     84      2      O          -0.01413004     0.00359790     0.01223200
     85      4      H          -0.00641310    -0.01549903    -0.01326557
     86      4      H           0.00783640     0.01123999    -0.00700234
     87      2      O           0.02379707     0.01508274    -0.00837505
     88      4      H          -0.01817128    -0.00077888    -0.00414999
     89      4      H           0.00090374    -0.01421277     0.00551852
     90      2      O           0.00139189     0.00480469    -0.03512094
     91      4      H          -0.00056487     0.00698187     0.01635313
     92      4      H          -0.00455377    -0.00938795     0.01232806
     93      2      O          -0.00897908     0.00734600     0.01830756
     94      4      H          -0.00223694    -0.01647308    -0.01022617
     95      4      H           0.01028455     0.00694349    -0.00558060
     96      2      O          -0.01163490     0.01701319    -0.00025591
     97      4      H           0.00075004    -0.02458741    -0.01120313
     98      4      H           0.01249352    -0.00052717     0.00123910
     99      2      O          -0.01843038     0.00106568     0.01587148
    100      4      H           0.00402487     0.01700079    -0.00072374
    101      4      H           0.01014816    -0.02316544    -0.01384031
    102      2      O           0.01499181     0.00108661     0.03063868
    103      4      H          -0.00571728    -0.01988296    -0.01498315
    104      4      H          -0.00221418     0.02175859    -0.00816217
    105      2      O          -0.00671463     0.00560662     0.01792812
    106      4      H          -0.01226039    -0.00761271    -0.02056947
    107      4      H           0.01619536     0.00031938    -0.00226354
    108      2      O           0.01188322     0.01022114    -0.00128021
    109      4      H          -0.00441855    -0.01290415     0.01470162
    110      4      H          -0.00894521    -0.00007574    -0.01126470
    111      2      O          -0.13007621    -0.09877986     0.32042185
    112      4      H          -0.02970925     0.04656885     0.07458186
    113      4      H           0.00658583     0.00233692     0.01815753
    114      2      O           0.04759404     0.10751806     0.03869830
    115      4      H           0.00615531    -0.00652167     0.00917083
    116      4      H           0.02031946     0.03502130    -0.01814651
    117      2      O          -0.01654683     0.01560263     0.01785511
    118      4      H          -0.00597842     0.00807317    -0.00801909
    119      4      H           0.02762064    -0.02056523    -0.01018959
    120      2      O          -0.02386779    -0.02135981     0.00295609
    121      4      H           0.01316536     0.00581049     0.00117242
    122      4      H           0.01132901     0.02283395     0.01190796
    123      2      O           0.01615164    -0.00885833     0.00183225
    124      4      H          -0.00536336     0.02501486     0.00354506
    125      4      H          -0.01271285    -0.00598686    -0.00561060
    126      2      O           0.00170163    -0.02786247     0.00928746
    127      4      H           0.01317324    -0.01076231    -0.01782891
    128      4      H          -0.00616369    -0.01691458     0.00703796
    129      2      O           0.00875037     0.02034209     0.02487839
    130      4      H          -0.01400519    -0.00975070    -0.00661575
    131      4      H           0.00333189    -0.01498509    -0.01979933
    132      2      O          -0.02574048     0.00390241     0.03487185
    133      4      H           0.00539957     0.01125455     0.01631231
    134      4      H           0.01509653    -0.00035403     0.00481354
    135      2      O           0.00369733     0.00655406    -0.03357738
    136      4      H           0.00401995     0.00160780     0.02202907
    137      4      H          -0.00864763    -0.00636624     0.00644357
    138      2      O          -0.01234249    -0.01333435     0.01786690
    139      4      H          -0.00433285    -0.00894680    -0.00689907
    140      4      H           0.01121965     0.01795395     0.00431344
    141      2      O          -0.01528456    -0.00570385     0.02630319
    142      4      H           0.00229594     0.00346156    -0.02449424
    143      4      H           0.01734667     0.01543112    -0.00117823
    144      2      O          -0.01138314     0.00020596     0.01334055
    145      4      H           0.00552949    -0.00751667    -0.01178570
    146      4      H           0.01079398     0.01041810     0.00720994
    147      2      O           0.00144021    -0.00261148     0.01468856
    148      4      H          -0.00808478     0.00181427    -0.01926863
    149      4      H          -0.01635541    -0.00513398     0.01033331
    150      2      O          -0.00069098    -0.01518925     0.01757409
    151      4      H           0.00351681     0.01740372     0.00340521
    152      4      H          -0.00154316    -0.00547246    -0.02043533
    153      2      O          -0.01063436    -0.00505135     0.00756681
    154      4      H           0.00929388    -0.00666679    -0.01130605
    155      4      H           0.00907486     0.01102658    -0.00052540
    156      2      O           0.00438776     0.00032662     0.02720244
    157      4      H          -0.01359356     0.01151178     0.00271213
    158      4      H           0.01114507    -0.01007308    -0.02556721
    159      2      O          -0.02897196     0.00642396     0.00974867
    160      4      H           0.01761923    -0.00256174    -0.01423168
    161      4      H           0.00785452    -0.00819221     0.00703953
    162      2      O          -0.00336416    -0.00094206    -0.02469869
    163      4      H          -0.01706155     0.00634094     0.00342479
    164      4      H           0.01098989    -0.00502189     0.02527966
    165      2      O          -0.01666168     0.01227034    -0.00492516
    166      4      H           0.01528594     0.00256301     0.00832829
    167      4      H           0.00073270    -0.01740648    -0.00465067
    168      2      O          -0.01284367    -0.00271345    -0.00436274
    169      4      H           0.00195105     0.00638888     0.01668018
    170      4      H           0.01860283    -0.00516182    -0.00774722
    171      2      O           0.00863174    -0.00899878    -0.02556780
    172      4      H          -0.01838987     0.00349166     0.00577788
    173      4      H           0.01268223     0.00563133     0.01355810
    174      2      O          -0.02183204     0.01711847    -0.00612947
    175      4      H           0.00707459     0.01313586    -0.00382211
    176      4      H          -0.01083351     0.00276775     0.01225253
    177      2      O          -0.02620964    -0.03067322    -0.03931883
    178      4      H           0.01139004    -0.00839687    -0.00344555
    179      4      H           0.00321555     0.02287499    -0.00661459
    180      2      O           0.01291019     0.00189519     0.01667783
    181      4      H          -0.01803808     0.01134018    -0.00260450
    182      4      H           0.00612746    -0.01111011    -0.00813890
    183      2      O          -0.00512403    -0.00003526     0.02283855
    184      4      H           0.00752661     0.01766424    -0.01084263
    185      4      H          -0.00593393    -0.01625195    -0.01012628
    186      2      O          -0.01269771     0.01618543     0.00558387
    187      4      H           0.00295527    -0.00773130    -0.01577749
    188      4      H           0.00981382    -0.00944475     0.01047402
    189      2      O           0.00325966     0.03183465    -0.01137762
    190      4      H           0.00468600    -0.02668789     0.00883550
    191      4      H          -0.01226168    -0.00485041     0.00445933
    192      2      O          -0.00636147     0.00960852    -0.01787918
    193      4      H          -0.00212438     0.01114828     0.01353608
    194      4      H           0.00304264    -0.02070735     0.00349493
    195      2      O          -0.00928628    -0.00922473    -0.01454895
    196      4      H           0.00231176     0.01686776     0.01020610
    197      4      H           0.01168389    -0.01082733     0.00721434
    198      2      O          -0.01120413     0.02025045     0.01108036
    199      4      H           0.00963782    -0.00614055    -0.02004528
    200      4      H           0.00585030    -0.01287831     0.00873356
    201      2      O          -0.00841992     0.01512842     0.01711763
    202      4      H          -0.00150291    -0.01748551    -0.00685056
    203      4      H           0.01066572     0.00684784    -0.00789475
    204      2      O           0.11212247     0.04821019    -0.36551136
    205      4      H           0.02666742     0.02297833    -0.03907900
    206      4      H           0.01965435    -0.01294335    -0.01643513
    207      2      O           0.01805312    -0.00614116    -0.03022447
    208      4      H          -0.02970077    -0.00849368     0.03334845
    209      4      H           0.00841062     0.01115047     0.00269132
    210      2      O          -0.00784083    -0.01812187     0.01112907
    211      4      H           0.00860308     0.00327266     0.01238785
    212      4      H           0.01125031     0.01451633    -0.02487110
    213      2      O          -0.00070228    -0.01361524     0.00235041
    214      4      H          -0.01096194     0.01503155    -0.00916722
    215      4      H           0.01365568    -0.00579039    -0.01295355
    216      2      O           0.01044885     0.01380279     0.01498678
    217      4      H           0.00624066    -0.00801562    -0.02409343
    218      4      H          -0.01257632    -0.00959109     0.00808270
    219      2      O          -0.05978764    -0.00660657    -0.00635946
    220      4      H           0.02222861    -0.00027872    -0.00155954
    221      4      H           0.00992344     0.01303445     0.00601510
    222      2      O           0.00589399     0.01369706    -0.00763505
    223      4      H           0.01216572    -0.01662283     0.00183884
    224      4      H          -0.01665000    -0.00689975     0.00306462
    225      2      O          -0.00406162     0.00318374     0.00525837
    226      4      H          -0.01015113    -0.00727300     0.00759664
    227      4      H           0.01349971    -0.01085023    -0.00888199
    228      2      O           0.00649721    -0.00203826     0.01272178
    229      4      H           0.00394258    -0.01627755    -0.00358408
    230      4      H          -0.01042085     0.01557584    -0.00524816
    231      2      O          -0.00480679     0.02485601    -0.01086715
    232      4      H          -0.00835525    -0.01398344     0.00118800
    233      4      H           0.01513009    -0.00136037     0.01847726
    234      2      O           0.01755986    -0.01217118    -0.00429650
    235      4      H           0.00887348     0.00438036     0.01284449
    236      4      H           0.00020885    -0.01847556     0.00375261
    237      2      O           0.00383602    -0.01091306     0.01850756
    238      4      H           0.01688677    -0.00771308    -0.01250374
    239      4      H          -0.01336610     0.02161306    -0.00663091
    240      2      O          -0.00413024     0.00234114    -0.02687807
    241      4      H           0.01253951     0.00895285     0.01705262
    242      4      H          -0.00052631    -0.01175262     0.00520059
    243      2      O          -0.03385448     0.00616544     0.04145551
    244      4      H           0.03133266     0.00369758    -0.03117960
    245      4      H          -0.00142488    -0.01206490    -0.00084582
    246      2      O          -0.01063974     0.01951622    -0.00973401
    247      4      H          -0.01360322    -0.00554697     0.00444397
    248      4      H           0.01003241    -0.02465361     0.00264206
    249      2      O          -0.00168307     0.00337433     0.02447412
    250      4      H           0.01115284    -0.00438314    -0.01798588
    251      4      H           0.01859731    -0.01991456    -0.00600687
    252      2      O           0.01560934    -0.00634108    -0.02471261
    253      4      H          -0.00225280    -0.00508820     0.03022625
    254      4      H          -0.01350907     0.00916923    -0.00578291
    255      2      O           0.00777960     0.01587728     0.00186721
    256      4      H          -0.01400411     0.00277484     0.00047948
    257      4      H           0.01036225    -0.01802424     0.00083572
    258      2      O           0.00225931     0.00908306    -0.01839098
    259      4      H          -0.01684894    -0.00143774     0.01019413
    260      4      H           0.01089009    -0.00428165     0.01244757
    261      2      O           0.00056961     0.00123059     0.01937414
    262      4      H           0.00275227     0.01373105    -0.01680297
    263      4      H          -0.00115614    -0.01479644    -0.00069578
    264      2      O           0.01307831     0.01030429    -0.00192512
    265      4      H           0.00745872     0.00546159    -0.01670202
    266      4      H          -0.01795550    -0.01135821     0.02105763
    267      2      O          -0.01378893     0.02286125     0.01069422
    268      4      H           0.00950985    -0.03449410    -0.00204250
    269      4      H           0.01107532     0.00542813    -0.01612654
    270      2      O          -0.01462310    -0.00300074     0.01033767
    271      4      H          -0.00240441     0.01191195    -0.00520899
    272      4      H           0.01076051    -0.00849856    -0.00595994
    273      2      O           0.01417051    -0.01067055     0.01314221
    274      4      H          -0.01660443    -0.01060056    -0.01616040
    275      4      H           0.00751138     0.01791738    -0.00179700
    276      2      O           0.01644742    -0.03300817    -0.00618232
    277      4      H          -0.00047792     0.02041568     0.00108524
    278      4      H          -0.01549985     0.00101738     0.00527089
    279      2      O           0.00422550     0.02400290     0.00206679
    280      4      H           0.01012028     0.00628989    -0.00057039
    281      4      H          -0.01636663    -0.02628296     0.00330985
    282      2      O          -0.04146829    -0.10475567    -0.03363801
    283      4      H          -0.01306877    -0.01665911    -0.01545012
    284      4      H          -0.03174157    -0.00377688     0.01323481
    285      2      O           0.00744116     0.00115145    -0.01044181
    286      4      H          -0.01684501    -0.00853962     0.01842659
    287      4      H           0.00935527     0.01608768    -0.00239154
    288      2      O          -0.01893267     0.00825797     0.01806861
    289      4      H           0.00527796    -0.01728256    -0.00743570
    290      4      H           0.01884110     0.00713025    -0.00706483
    291      2      O           0.01267302    -0.00789202     0.00247590
    292      4      H           0.00145591     0.00517670    -0.01170613
    293      4      H          -0.01820247    -0.00881777     0.00007978
    294      2      O          -0.02019026     0.02597976     0.01543767
    295      4      H          -0.00677614    -0.01141255    -0.00642732
    296      4      H           0.02100181    -0.01343105    -0.00829475
    297      2      O           0.02558916     0.02219523     0.00035630
    298      4      H          -0.00457269    -0.00729701    -0.01257008
    299      4      H          -0.00941726    -0.01505128     0.01154411
    300      2      O          -0.00610337    -0.00911219     0.01443071
    301      4      H          -0.00190675     0.00714458     0.01331335
