     352
 i =        1, E =     -2053.8120593477
  C         6.3505245985        8.6812722205        6.2224265956
  O         6.6863848567        8.2375824569        7.5900937058
  P         6.4000066362        9.1008034300        8.9896925920
  O         4.9175047969        9.6547518936        8.7970497842
  O         7.2442890647       10.4174672272        8.9601271154
  O         6.7093924969        8.4693084225       10.2179379729
  H         7.2976264750        8.8959179698        5.7166260558
  H         5.7452974793        9.5907421139        6.1762168321
  H         5.7966465264        7.8650410967        5.7313876657
  H         4.3120963196        8.8706037611        8.7759661361
  H         6.8465724346       11.0667308602        8.3065113403
  C        10.5397312931        8.3752765167        7.8533835670
  O         9.7275992121        7.5922464108        8.7889308159
  P         9.0846469737        6.1419618110        8.4729490030
  O        10.0384278443        4.8692214723        8.2538223152
  O         8.2368640744        6.0468027084        7.1168259122
  O         8.0785881107        5.8198821446        9.4690430830
  H         9.9694797509        9.2182566817        7.4710862965
  H        10.8061804354        7.8141799226        6.9633067059
  H        11.4633095583        8.7013580530        8.3449635641
  H        10.6148487433        4.8471591006        9.0852316742
  H         7.4995485400        6.7352204231        7.2508655399
  O         2.4865000000        6.8000000000        1.4220000000
  H         2.4235000000        7.5920000000        0.8890000000
  H         3.4215000000        6.7050000000        1.6020000000
  O         4.1875000000        8.3780000000       12.7090000000
  H         3.3455000000        8.7760000000       12.9300000000
  H         4.0375000000        7.4370000000       12.7990000000
  O        10.7175000000        9.8960000000        4.6320000000
  H        10.1795000000        9.6080000000        3.8940000000
  H        11.3545000000        9.1920000000        4.7540000000
  O         2.1155000000        3.6810000000        1.0370000000
  H         2.7605000000        3.0570000000        0.7040000000
  H         2.6385000000        4.4120000000        1.3690000000
  O         1.3775000000        3.0640000000       14.4540000000
  H         2.2215000000        2.7590000000       14.7860000000
  H         0.7295000000        2.5730000000       14.9590000000
  O         1.9685000000       10.5130000000        9.3990000000
  H         1.6955000000       11.2880000000        9.8900000000
  H         2.3245000000       10.8610000000        8.5810000000
  O         6.4565000000        3.8430000000       13.3740000000
  H         6.4075000000        3.3070000000       12.5830000000
  H         6.5195000000        4.7420000000       13.0520000000
  O         1.9335000000        0.2670000000        5.4370000000
  H         1.9565000000        0.1320000000        6.3840000000
  H         1.0145000000        0.1430000000        5.1990000000
  O        11.1345000000        5.7180000000        5.4210000000
  H        11.7885000000        5.2290000000        4.9230000000
  H        11.2275000000        5.3980000000        6.3180000000
  O         2.7985000000        9.8290000000        2.0960000000
  H         2.5765000000        9.0270000000        2.5690000000
  H         2.8625000000        9.5570000000        1.1800000000
  O         9.8445000000       14.0450000000        7.8430000000
  H         9.1675000000       14.0790000000        8.5200000000
  H        10.6105000000       13.6830000000        8.2890000000
  O         4.4295000000       12.6680000000        9.4780000000
  H         4.6395000000       12.0810000000       10.2050000000
  H         5.2805000000       12.9730000000        9.1620000000
  O         2.1215000000       14.7690000000        4.9720000000
  H         2.1485000000       13.9010000000        4.5700000000
  H         3.0295000000       14.9470000000        5.2190000000
  O        12.3255000000        9.6470000000        2.2940000000
  H        12.1705000000        8.7040000000        2.3470000000
  H        12.2295000000        9.9570000000        3.1950000000
  O         8.7335000000        4.9570000000        1.1340000000
  H         9.0345000000        5.7210000000        0.6420000000
  H         8.2135000000        4.4560000000        0.5060000000
  O        14.7155000000        5.8850000000       14.8940000000
  H        14.1195000000        5.2430000000       15.2800000000
  H        15.3655000000        5.3590000000       14.4270000000
  O         9.3915000000        5.2080000000       13.1870000000
  H         9.7315000000        5.8620000000       13.7990000000
  H         8.5105000000        5.5150000000       12.9730000000
  O        12.3095000000        3.7520000000        3.8340000000
  H        11.6815000000        3.3310000000        3.2480000000
  H        12.8815000000        3.0410000000        4.1240000000
  O         5.4005000000        6.7690000000        2.3410000000
  H         6.1105000000        6.4780000000        2.9150000000
  H         5.6955000000        6.5390000000        1.4600000000
  O         6.6935000000       11.4540000000        4.4700000000
  H         7.5905000000       11.2670000000        4.7470000000
  H         6.5255000000       10.8310000000        3.7630000000
  O         0.8395000000        0.2030000000        8.7260000000
  H         0.6355000000        1.0860000000        8.4180000000
  H         1.3825000000        0.3380000000        9.5020000000
  O        15.3075000000        3.7890000000       10.9060000000
  H        14.5265000000        3.5830000000       10.3910000000
  H        15.6015000000        4.6350000000       10.5680000000
  O         9.4395000000       12.6060000000        5.2390000000
  H         9.3375000000       12.6710000000        6.1880000000
  H         9.8525000000       11.7540000000        5.1000000000
  O         6.1245000000        1.1380000000        5.3180000000
  H         6.7735000000        1.8350000000        5.2190000000
  H         5.2815000000        1.5770000000        5.2060000000
  O         4.6905000000        1.3320000000       15.3400000000
  H         4.9625000000        0.5580000000       14.8480000000
  H         5.0765000000        2.0670000000       14.8630000000
  O         3.4695000000       15.2080000000        2.1370000000
  H         2.5155000000       15.2370000000        2.2110000000
  H         3.7345000000       14.5050000000        2.7300000000
  O        10.1995000000       14.1950000000        2.9970000000
  H        10.5655000000       14.7440000000        3.6900000000
  H        10.0195000000       13.3570000000        3.4240000000
  O         5.3515000000        5.3100000000        5.6700000000
  H         5.4525000000        4.4930000000        5.1820000000
  H         6.1555000000        5.7970000000        5.4900000000
  O         6.9115000000       14.2970000000        4.6290000000
  H         6.7105000000       13.3720000000        4.4880000000
  H         7.8465000000       14.3120000000        4.8310000000
  O         4.4555000000        4.0990000000        2.7660000000
  H         4.9495000000        4.9090000000        2.8930000000
  H         5.0675000000        3.5130000000        2.3210000000
  O         4.1145000000        4.9960000000       10.3340000000
  H         4.0505000000        4.2640000000        9.7200000000
  H         3.7215000000        5.7340000000        9.8690000000
  O        11.7665000000       12.4470000000       13.0960000000
  H        11.3585000000       12.1690000000       12.2760000000
  H        12.6925000000       12.5560000000       12.8790000000
  O        10.6615000000        7.3980000000        2.8080000000
  H        10.3645000000        6.7220000000        3.4180000000
  H        10.1235000000        7.2690000000        2.0270000000
  O         6.0065000000       12.8990000000        1.3930000000
  H         6.2235000000       13.6010000000        0.7800000000
  H         6.7735000000       12.3270000000        1.3850000000
  O         0.7415000000       13.9890000000        1.8210000000
  H         0.8615000000       13.3810000000        2.5510000000
  H         0.0785000000       13.5750000000        1.2700000000
  O        10.1815000000       14.5440000000       13.8060000000
  H         9.9015000000       15.0570000000       13.0480000000
  H        10.7795000000       13.8890000000       13.4450000000
  O         7.5875000000       10.3300000000       12.5630000000
  H         8.3615000000        9.9880000000       12.1160000000
  H         7.8435000000       11.2070000000       12.8490000000
  O         2.9865000000        7.5230000000        9.4540000000
  H         2.6245000000        8.3830000000        9.6660000000
  H         2.2405000000        6.9260000000        9.5130000000
  O         2.3415000000       14.1660000000       11.1420000000
  H         2.7255000000       13.7400000000       10.3760000000
  H         1.8295000000       13.4780000000       11.5670000000
  O         9.6235000000        8.6560000000       11.2850000000
  H         8.6805000000        8.7810000000       11.1750000000
  H         9.8775000000        8.0960000000       10.5520000000
  O         9.1415000000       12.5090000000        0.6480000000
  H         9.2905000000       13.1520000000        1.3410000000
  H         9.9825000000       12.4440000000        0.1950000000
  O        13.5995000000        9.5410000000       12.1200000000
  H        14.0835000000        9.4410000000       12.9390000000
  H        12.7375000000        9.1660000000       12.3020000000
  O        12.7675000000        3.5480000000        6.6460000000
  H        12.7045000000        3.0190000000        5.8500000000
  H        13.3655000000        4.2590000000        6.4140000000
  O         5.0395000000        0.8040000000        8.0910000000
  H         4.9775000000        0.6840000000        7.1430000000
  H         5.9595000000        1.0160000000        8.2470000000
  O        12.0765000000       13.1800000000        8.7970000000
  H        12.6645000000       12.7350000000        8.1880000000
  H        12.5615000000       13.9570000000        9.0740000000
  O        15.9215000000       10.2810000000       10.4740000000
  H        15.4685000000       10.6260000000        9.7040000000
  H        15.2255000000        9.9030000000       11.0120000000
  O         6.2505000000       12.0540000000        7.0560000000
  H         6.5285000000       12.9290000000        7.3280000000
  H         6.1115000000       12.1290000000        6.1120000000
  O        14.3825000000        5.6150000000        5.9940000000
  H        14.7965000000        5.0750000000        5.3210000000
  H        14.6905000000        6.5030000000        5.8130000000
  O         6.9535000000        6.3160000000       11.9850000000
  H         6.3895000000        7.0790000000       11.8580000000
  H         7.3205000000        6.1420000000       11.1190000000
  O         4.5935000000       15.0530000000        5.7640000000
  H         5.0995000000       14.5230000000        5.1480000000
  H         5.1355000000       15.0870000000        6.5520000000
  O         6.9235000000       14.4870000000        8.2930000000
  H         6.5615000000       15.3510000000        8.4920000000
  H         7.3565000000       14.2160000000        9.1020000000
  O        13.1715000000        2.4430000000        0.3620000000
  H        14.0495000000        2.6140000000        0.7030000000
  H        13.1835000000        1.5160000000        0.1240000000
  O         8.1065000000        2.3880000000        3.0490000000
  H         8.3115000000        2.7120000000        3.9260000000
  H         8.9165000000        2.5070000000        2.5540000000
  O        11.4985000000        1.9190000000       11.2790000000
  H        10.5935000000        1.7010000000       11.5020000000
  H        11.9285000000        2.0500000000       12.1240000000
  O        14.5475000000        9.8460000000       14.6140000000
  H        15.1975000000       10.5450000000       14.5420000000
  H        14.1425000000        9.9830000000       15.4700000000
  O         9.0605000000       12.0510000000       14.4950000000
  H         9.7855000000       11.4290000000       14.5560000000
  H         9.4735000000       12.8770000000       14.2440000000
  O        15.0405000000        8.7030000000        2.4800000000
  H        14.2005000000        9.0500000000        2.1790000000
  H        15.4215000000        8.2910000000        1.7040000000
  O         5.2795000000        6.2480000000       15.3670000000
  H         5.8835000000        6.9130000000       15.0390000000
  H         5.2865000000        5.5650000000       14.6960000000
  O        13.9275000000        1.2930000000        4.5310000000
  H        13.8365000000        0.8750000000        3.6740000000
  H        14.3235000000        0.6200000000        5.0840000000
  O         2.7015000000        9.3950000000        5.5220000000
  H         3.0755000000        8.5280000000        5.6760000000
  H         1.7865000000        9.3120000000        5.7880000000
  O        14.0325000000        6.2880000000       11.6340000000
  H        13.9085000000        6.7500000000       12.4630000000
  H        14.0225000000        5.3610000000       11.8720000000
  O         8.2905000000        3.5790000000        5.7390000000
  H         8.4395000000        4.4530000000        6.1000000000
  H         8.8355000000        3.0020000000        6.2740000000
  O         7.4615000000        5.3990000000        3.5630000000
  H         7.9045000000        5.2670000000        2.7250000000
  H         7.9215000000        4.8210000000        4.1720000000
  O        14.4815000000       12.7760000000       11.4690000000
  H        14.2265000000       11.9980000000       10.9740000000
  H        15.0985000000       13.2330000000       10.8970000000
  O         6.5855000000       13.2090000000       15.8760000000
  H         6.9925000000       14.0180000000       15.5640000000
  H         7.0535000000       12.5120000000       15.4170000000
  O         8.3465000000       14.0430000000       10.5360000000
  H         7.6305000000       13.9880000000       11.1680000000
  H         8.8545000000       14.8050000000       10.8140000000
  O         6.4415000000        8.7620000000       14.7770000000
  H         6.9965000000        8.8740000000       15.5490000000
  H         6.8925000000        9.2460000000       14.0850000000
  O         6.6705000000        2.7820000000       11.0330000000
  H         5.9955000000        3.3850000000       10.7240000000
  H         7.2525000000        2.6680000000       10.2820000000
  O         3.2635000000        5.4790000000       13.0480000000
  H         3.3325000000        5.3700000000       12.1000000000
  H         2.4595000000        5.0170000000       13.2850000000
  O        14.9865000000       14.0040000000        7.1120000000
  H        15.6695000000       13.5100000000        6.6590000000
  H        15.1065000000       14.9060000000        6.8160000000
  O         4.7975000000       11.4500000000       11.9640000000
  H         5.4945000000       10.8060000000       12.0920000000
  H         3.9885000000       10.9550000000       12.0870000000
  O         1.2385000000       12.3910000000        3.8630000000
  H         0.5845000000       11.9570000000        4.4100000000
  H         1.8345000000       11.6900000000        3.5980000000
  O        10.0535000000       11.7730000000       10.9960000000
  H        10.0135000000       10.8730000000       10.6710000000
  H         9.4465000000       12.2570000000       10.4360000000
  O         6.1165000000        2.1520000000        1.2240000000
  H         6.1025000000        1.2010000000        1.3270000000
  H         6.8275000000        2.4450000000        1.7930000000
  O         0.1425000000        8.2910000000       14.7470000000
  H         0.7555000000        8.6650000000       15.3790000000
  H         0.1915000000        7.3460000000       14.8950000000
  O        10.5845000000        2.9620000000        1.8160000000
  H        11.2885000000        2.8100000000        1.1850000000
  H        10.0895000000        3.6950000000        1.4520000000
  O        11.7175000000       11.7670000000        0.5480000000
  H        12.2995000000       11.9660000000        1.2810000000
  H        11.6155000000       10.8150000000        0.5750000000
  O         4.2255000000       12.6050000000        3.2440000000
  H         4.8885000000       12.7550000000        2.5710000000
  H         4.1065000000       11.6560000000        3.2570000000
  O         2.0145000000        5.2090000000        8.1250000000
  H         1.2235000000        4.9970000000        8.6200000000
  H         2.5565000000        4.4230000000        8.1880000000
  O         1.3085000000       13.9860000000        7.4960000000
  H         1.6665000000       14.4640000000        6.7480000000
  H         1.5405000000       13.0720000000        7.3300000000
  O        13.1775000000       13.2720000000        2.2800000000
  H        13.1135000000       13.2210000000        3.2330000000
  H        12.5395000000       13.9410000000        2.0320000000
  O         2.8965000000       12.7830000000       14.8480000000
  H         1.9535000000       12.7000000000       14.7090000000
  H         3.2315000000       11.8910000000       14.7580000000
  O        12.6235000000        3.2460000000       13.3820000000
  H        11.7905000000        3.0070000000       13.7890000000
  H        13.2675000000        3.1610000000       14.0840000000
  O        12.3505000000       11.0460000000        6.8230000000
  H        12.4045000000       11.3480000000        5.9160000000
  H        12.2695000000       10.0950000000        6.7550000000
  O        13.1535000000        3.1040000000        9.4180000000
  H        12.7395000000        3.0080000000        8.5600000000
  H        12.5135000000        2.7490000000       10.0350000000
  O         3.8095000000        3.2130000000        8.3820000000
  H         4.1615000000        2.3230000000        8.3700000000
  H         4.3725000000        3.7010000000        7.7800000000
  O         4.2355000000        1.8550000000       12.2400000000
  H         4.2215000000        2.6450000000       11.6980000000
  H         4.9465000000        1.3280000000       11.8760000000
  O        14.5985000000       11.4820000000        8.3400000000
  H        13.7635000000       11.4230000000        7.8760000000
  H        14.8895000000       12.3830000000        8.1990000000
  O         9.3465000000        2.5900000000       12.9640000000
  H         9.4545000000        3.5400000000       12.9170000000
  H         8.4195000000        2.4640000000       13.1670000000
  O        12.6385000000        8.0990000000        5.1660000000
  H        13.5425000000        7.9490000000        5.4450000000
  H        12.2405000000        7.2290000000        5.1680000000
  O        15.7245000000       12.4040000000        1.1260000000
  H        15.3805000000       11.7840000000        0.4830000000
  H        14.9485000000       12.7330000000        1.5810000000
  O        11.2145000000       15.1350000000        5.3930000000
  H        10.7295000000       15.2060000000        6.2150000000
  H        11.6815000000       15.9670000000        5.3170000000
  O         8.0285000000        1.3920000000        8.6610000000
  H         8.0705000000        0.4970000000        8.3240000000
  H         8.7745000000        1.8360000000        8.2580000000
  O         6.0115000000       10.0470000000        2.4320000000
  H         6.3295000000       10.1010000000        1.5310000000
  H         5.2015000000        9.5410000000        2.3710000000
  O         4.0385000000        9.8910000000       15.1940000000
  H         3.3885000000        9.2070000000       15.3550000000
  H         4.8315000000        9.4150000000       14.9490000000
  O         1.3315000000        9.6470000000       12.7050000000
  H         1.3305000000        8.8850000000       12.1250000000
  H         0.7945000000        9.3810000000       13.4510000000
  O         0.5815000000        3.6770000000        3.4420000000
  H         0.1275000000        4.3570000000        3.9400000000
  H         0.6135000000        4.0160000000        2.5470000000
  O        11.2365000000        5.7410000000       10.6320000000
  H        12.0525000000        6.2180000000       10.7810000000
  H        10.9315000000        5.5080000000       11.5090000000
  O        10.6675000000        1.8350000000        7.5320000000
  H        11.0205000000        0.9830000000        7.7880000000
  H        11.3805000000        2.4500000000        7.6990000000
  O         1.5655000000        1.1700000000        2.7030000000
  H         1.6665000000        1.0300000000        3.6450000000
  H         1.0705000000        1.9860000000        2.6330000000
  O        11.5745000000        7.8950000000       13.1530000000
  H        11.1905000000        7.4620000000       13.9150000000
  H        10.8215000000        8.2200000000       12.6570000000
  O         1.9755000000        0.2730000000       11.3460000000
  H         1.3035000000        0.0330000000       11.9830000000
  H         2.4905000000        0.9510000000       11.7850000000
  O         4.1965000000       14.9430000000       13.5690000000
  H         3.6475000000       14.9730000000       12.7860000000
  H         3.8295000000       14.2300000000       14.0920000000
  O        12.9365000000       13.1300000000        5.0260000000
  H        13.6885000000       13.6670000000        5.2750000000
  H        12.1915000000       13.7310000000        5.0630000000
  O        15.2645000000        5.8870000000        1.9310000000
  H        15.5455000000        5.3960000000        2.7030000000
  H        14.4005000000        5.5310000000        1.7220000000
  O        14.4245000000       14.6230000000       13.7510000000
  H        14.3075000000       13.9290000000       13.1020000000
  H        13.7585000000       15.2740000000       13.5280000000
  O         3.7075000000        2.6320000000        5.1780000000
  H         2.8215000000        2.4800000000        5.5090000000
  H         3.5885000000        3.2300000000        4.4400000000
  O         2.7305000000       11.7710000000        7.0810000000
  H         2.9075000000       11.0790000000        6.4440000000
  H         3.5565000000       12.2510000000        7.1510000000
  O         6.5335000000       13.5340000000       12.5310000000
  H         5.9835000000       14.1170000000       13.0550000000
  H         5.9535000000       12.8120000000       12.2870000000
  O         3.0395000000        6.7010000000        6.0440000000
  H         3.8365000000        6.2490000000        5.7640000000
  H         2.5875000000        6.0670000000        6.6010000000
     352
 i =        2, E =     -2053.8290194577
  C         6.3504533512        8.6861730612        6.2192408705
  O         6.6833233665        8.2394308913        7.5999520883
  P         6.3939131034        9.1292614621        8.9818805283
  O         4.9202479898        9.6461197255        8.7919811143
  O         7.2510238473       10.4227256266        8.9479693392
  O         6.7162893732        8.4330100113       10.2359218794
  H         7.2958209583        8.8922353180        5.7164441252
  H         5.7451889566        9.5880866089        6.1834706410
  H         5.8003705356        7.8687117589        5.7348914840
  H         4.3020638895        8.8692420127        8.7759910990
  H         6.8467735138       11.0761129773        8.2928898225
  C        10.5473503197        8.3811708168        7.8374271940
  O         9.7318617471        7.5701474271        8.7701225626
  P         9.0496490021        6.1279569218        8.4876977401
  O        10.0618532635        4.8855586905        8.2406062846
  O         8.2588671837        6.0626660280        7.0784540131
  O         8.0645160436        5.8243141047        9.5246586477
  H         9.9658860780        9.2218076626        7.4793067073
  H        10.8066672750        7.8056613611        6.9653915403
  H        11.4584373526        8.7000729829        8.3492546359
  H        10.6223121506        4.8465243272        9.0920003223
  H         7.4982948675        6.7370835145        7.2534155089
  O         2.4865000000        6.8000000000        1.4220000000
  H         2.4235000000        7.5920000000        0.8890000000
  H         3.4215000000        6.7050000000        1.6020000000
  O         4.1875000000        8.3780000000       12.7090000000
  H         3.3455000000        8.7760000000       12.9300000000
  H         4.0375000000        7.4370000000       12.7990000000
  O        10.7175000000        9.8960000000        4.6320000000
  H        10.1795000000        9.6080000000        3.8940000000
  H        11.3545000000        9.1920000000        4.7540000000
  O         2.1155000000        3.6810000000        1.0370000000
  H         2.7605000000        3.0570000000        0.7040000000
  H         2.6385000000        4.4120000000        1.3690000000
  O         1.3775000000        3.0640000000       14.4540000000
  H         2.2215000000        2.7590000000       14.7860000000
  H         0.7295000000        2.5730000000       14.9590000000
  O         1.9685000000       10.5130000000        9.3990000000
  H         1.6955000000       11.2880000000        9.8900000000
  H         2.3245000000       10.8610000000        8.5810000000
  O         6.4565000000        3.8430000000       13.3740000000
  H         6.4075000000        3.3070000000       12.5830000000
  H         6.5195000000        4.7420000000       13.0520000000
  O         1.9335000000        0.2670000000        5.4370000000
  H         1.9565000000        0.1320000000        6.3840000000
  H         1.0145000000        0.1430000000        5.1990000000
  O        11.1345000000        5.7180000000        5.4210000000
  H        11.7885000000        5.2290000000        4.9230000000
  H        11.2275000000        5.3980000000        6.3180000000
  O         2.7985000000        9.8290000000        2.0960000000
  H         2.5765000000        9.0270000000        2.5690000000
  H         2.8625000000        9.5570000000        1.1800000000
  O         9.8445000000       14.0450000000        7.8430000000
  H         9.1675000000       14.0790000000        8.5200000000
  H        10.6105000000       13.6830000000        8.2890000000
  O         4.4295000000       12.6680000000        9.4780000000
  H         4.6395000000       12.0810000000       10.2050000000
  H         5.2805000000       12.9730000000        9.1620000000
  O         2.1215000000       14.7690000000        4.9720000000
  H         2.1485000000       13.9010000000        4.5700000000
  H         3.0295000000       14.9470000000        5.2190000000
  O        12.3255000000        9.6470000000        2.2940000000
  H        12.1705000000        8.7040000000        2.3470000000
  H        12.2295000000        9.9570000000        3.1950000000
  O         8.7335000000        4.9570000000        1.1340000000
  H         9.0345000000        5.7210000000        0.6420000000
  H         8.2135000000        4.4560000000        0.5060000000
  O        14.7155000000        5.8850000000       14.8940000000
  H        14.1195000000        5.2430000000       15.2800000000
  H        15.3655000000        5.3590000000       14.4270000000
  O         9.3915000000        5.2080000000       13.1870000000
  H         9.7315000000        5.8620000000       13.7990000000
  H         8.5105000000        5.5150000000       12.9730000000
  O        12.3095000000        3.7520000000        3.8340000000
  H        11.6815000000        3.3310000000        3.2480000000
  H        12.8815000000        3.0410000000        4.1240000000
  O         5.4005000000        6.7690000000        2.3410000000
  H         6.1105000000        6.4780000000        2.9150000000
  H         5.6955000000        6.5390000000        1.4600000000
  O         6.6935000000       11.4540000000        4.4700000000
  H         7.5905000000       11.2670000000        4.7470000000
  H         6.5255000000       10.8310000000        3.7630000000
  O         0.8395000000        0.2030000000        8.7260000000
  H         0.6355000000        1.0860000000        8.4180000000
  H         1.3825000000        0.3380000000        9.5020000000
  O        15.3075000000        3.7890000000       10.9060000000
  H        14.5265000000        3.5830000000       10.3910000000
  H        15.6015000000        4.6350000000       10.5680000000
  O         9.4395000000       12.6060000000        5.2390000000
  H         9.3375000000       12.6710000000        6.1880000000
  H         9.8525000000       11.7540000000        5.1000000000
  O         6.1245000000        1.1380000000        5.3180000000
  H         6.7735000000        1.8350000000        5.2190000000
  H         5.2815000000        1.5770000000        5.2060000000
  O         4.6905000000        1.3320000000       15.3400000000
  H         4.9625000000        0.5580000000       14.8480000000
  H         5.0765000000        2.0670000000       14.8630000000
  O         3.4695000000       15.2080000000        2.1370000000
  H         2.5155000000       15.2370000000        2.2110000000
  H         3.7345000000       14.5050000000        2.7300000000
  O        10.1995000000       14.1950000000        2.9970000000
  H        10.5655000000       14.7440000000        3.6900000000
  H        10.0195000000       13.3570000000        3.4240000000
  O         5.3515000000        5.3100000000        5.6700000000
  H         5.4525000000        4.4930000000        5.1820000000
  H         6.1555000000        5.7970000000        5.4900000000
  O         6.9115000000       14.2970000000        4.6290000000
  H         6.7105000000       13.3720000000        4.4880000000