
  **** **** ******  **  PROGRAM STARTED AT               2023-05-11 15:50:05.224
 ***** ** ***  *** **   PROGRAM STARTED ON                       simtech-nbl-020
 **    ****   ******    PROGRAM STARTED BY                              ac127777
 ***** **    ** ** **   PROGRAM PROCESS ID                               4179813
  **** **  *******  **  PROGRAM STARTED IN    /home/ac127777/Documents/The_Force

 CP2K| version string:                                          CP2K version 9.1
 CP2K| source code revision number:                                  git:d8d7100
 CP2K| cp2kflags: omp libint fftw3 libxc xsmm spglib libvori libbqb             
 CP2K| is freely available from                            https://www.cp2k.org/
 CP2K| Program compiled at                          Do 4. Aug 18:17:51 CEST 2022
 CP2K| Program compiled on                                       simtech-nbl-020
 CP2K| Program compiled for                                                local
 CP2K| Data directory path                /home/ac127777/Downloads/cp2k-9.1/data
 CP2K| Input file name                                                  cp2k.inp

 GLOBAL| Force Environment number                                              1
 GLOBAL| Basis set file name                                    BASIS_MOLOPT_UZH
 GLOBAL| Potential file name                                       POTENTIAL_UZH
 GLOBAL| MM Potential file name                                     MM_POTENTIAL
 GLOBAL| Coordinate file name                                      __STD_INPUT__
 GLOBAL| Method name                                                        CP2K
 GLOBAL| Project name                                                       cp2k
 GLOBAL| Run type                                                   ENERGY_FORCE
 GLOBAL| FFT library                                                       FFTW3
 GLOBAL| Diagonalization library                                       ScaLAPACK
 GLOBAL| Orthonormality check for eigenvectors                          DISABLED
 GLOBAL| Matrix multiplication library                                 ScaLAPACK
 GLOBAL| All-to-all communication in single precision                          F
 GLOBAL| FFTs using library dependent lengths                                  F
 GLOBAL| Grid backend                                                       AUTO
 GLOBAL| Global print level                                               MEDIUM
 GLOBAL| MPI I/O enabled                                                       T
 GLOBAL| Total number of message passing processes                             1
 GLOBAL| Number of threads for this process                                    6
 GLOBAL| This output is from process                                           0
 GLOBAL| Stack size for threads created by OpenMP (OMP_STACKSIZE)        default
 GLOBAL| CPU model name                Intel(R) Core(TM) i7-10750H CPU @ 2.60GHz
 GLOBAL| CPUID                                                              1002

 MEMORY| system memory details [Kb]
 MEMORY|                        rank 0           min           max       average
 MEMORY| MemTotal             32736856      32736856      32736856      32736856
 MEMORY| MemFree               6844264       6844264       6844264       6844264
 MEMORY| Buffers               1865196       1865196       1865196       1865196
 MEMORY| Cached               11174724      11174724      11174724      11174724
 MEMORY| Slab                  1346708       1346708       1346708       1346708
 MEMORY| SReclaimable          1052248       1052248       1052248       1052248
 MEMORY| MemLikelyFree        20936432      20936432      20936432      20936432


 *** Fundamental physical constants (SI units) ***

 *** Literature: B. J. Mohr and B. N. Taylor,
 ***             CODATA recommended values of the fundamental physical
 ***             constants: 2006, Web Version 5.1
 ***             http://physics.nist.gov/constants

 Speed of light in vacuum [m/s]                             2.99792458000000E+08
 Magnetic constant or permeability of vacuum [N/A**2]       1.25663706143592E-06
 Electric constant or permittivity of vacuum [F/m]          8.85418781762039E-12
 Planck constant (h) [J*s]                                  6.62606896000000E-34
 Planck constant (h-bar) [J*s]                              1.05457162825177E-34
 Elementary charge [C]                                      1.60217648700000E-19
 Electron mass [kg]                                         9.10938215000000E-31
 Electron g factor [ ]                                     -2.00231930436220E+00
 Proton mass [kg]                                           1.67262163700000E-27
 Fine-structure constant                                    7.29735253760000E-03
 Rydberg constant [1/m]                                     1.09737315685270E+07
 Avogadro constant [1/mol]                                  6.02214179000000E+23
 Boltzmann constant [J/K]                                   1.38065040000000E-23
 Atomic mass unit [kg]                                      1.66053878200000E-27
 Bohr radius [m]                                            5.29177208590000E-11

 *** Conversion factors ***

 [u] -> [a.u.]                                              1.82288848426455E+03
 [Angstrom] -> [Bohr] = [a.u.]                              1.88972613288564E+00
 [a.u.] = [Bohr] -> [Angstrom]                              5.29177208590000E-01
 [a.u.] -> [s]                                              2.41888432650478E-17
 [a.u.] -> [fs]                                             2.41888432650478E-02
 [a.u.] -> [J]                                              4.35974393937059E-18
 [a.u.] -> [N]                                              8.23872205491840E-08
 [a.u.] -> [K]                                              3.15774647902944E+05
 [a.u.] -> [kJ/mol]                                         2.62549961709828E+03
 [a.u.] -> [kcal/mol]                                       6.27509468713739E+02
 [a.u.] -> [Pa]                                             2.94210107994716E+13
 [a.u.] -> [bar]                                            2.94210107994716E+08
 [a.u.] -> [atm]                                            2.90362800883016E+08
 [a.u.] -> [eV]                                             2.72113838565563E+01
 [a.u.] -> [Hz]                                             6.57968392072181E+15
 [a.u.] -> [1/cm] (wave numbers)                            2.19474631370540E+05
 [a.u./Bohr**2] -> [1/cm]                                   5.14048714338585E+03
 

 CELL_TOP| Volume [angstrom^3]:                                      4096.000000
 CELL_TOP| Vector a [angstrom    16.000     0.000     0.000   |a| =    16.000000
 CELL_TOP| Vector b [angstrom     0.000    16.000     0.000   |b| =    16.000000
 CELL_TOP| Vector c [angstrom     0.000     0.000    16.000   |c| =    16.000000
 CELL_TOP| Angle (b,c), alpha [degree]:                                90.000000
 CELL_TOP| Angle (a,c), beta  [degree]:                                90.000000
 CELL_TOP| Angle (a,b), gamma [degree]:                                90.000000
 CELL_TOP| Numerically orthorhombic:                                         YES

 GENERATE|  Preliminary Number of Bonds generated:                             0
 GENERATE|  Achieved consistency in connectivity generation.

 CELL| Volume [angstrom^3]:                                          4096.000000
 CELL| Vector a [angstrom]:      16.000     0.000     0.000   |a| =    16.000000
 CELL| Vector b [angstrom]:       0.000    16.000     0.000   |b| =    16.000000
 CELL| Vector c [angstrom]:       0.000     0.000    16.000   |c| =    16.000000
 CELL| Angle (b,c), alpha [degree]:                                    90.000000
 CELL| Angle (a,c), beta  [degree]:                                    90.000000
 CELL| Angle (a,b), gamma [degree]:                                    90.000000
 CELL| Numerically orthorhombic:                                             YES

 CELL_REF| Volume [angstrom^3]:                                      4096.000000
 CELL_REF| Vector a [angstrom    16.000     0.000     0.000   |a| =    16.000000
 CELL_REF| Vector b [angstrom     0.000    16.000     0.000   |b| =    16.000000
 CELL_REF| Vector c [angstrom     0.000     0.000    16.000   |c| =    16.000000
 CELL_REF| Angle (b,c), alpha [degree]:                                90.000000
 CELL_REF| Angle (a,c), beta  [degree]:                                90.000000
 CELL_REF| Angle (a,b), gamma [degree]:                                90.000000
 CELL_REF| Numerically orthorhombic:                                         YES

 *******************************************************************************
 *******************************************************************************
 **                                                                           **
 **     #####                         ##              ##                      **
 **    ##   ##            ##          ##              ##                      **
 **   ##     ##                       ##            ######                    **
 **   ##     ##  ##   ##  ##   #####  ##  ##   ####   ##    #####    #####    **
 **   ##     ##  ##   ##  ##  ##      ## ##   ##      ##   ##   ##  ##   ##   **
 **   ##  ## ##  ##   ##  ##  ##      ####     ###    ##   ######   ######    **
 **    ##  ###   ##   ##  ##  ##      ## ##      ##   ##   ##       ##        **
 **     #######   #####   ##   #####  ##  ##  ####    ##    #####   ##        **
 **           ##                                                    ##        **
 **                                                                           **
 **                                                ... make the atoms dance   **
 **                                                                           **
 **            Copyright (C) by CP2K developers group (2000-2021)             **
 **                      J. Chem. Phys. 152, 194103 (2020)                    **
 **                                                                           **
 *******************************************************************************

 DFT| Spin restricted Kohn-Sham (RKS) calculation                            RKS
 DFT| Multiplicity                                                             1
 DFT| Number of spin states                                                    1
 DFT| Charge                                                                   0
 DFT| Self-interaction correction (SIC)                                       NO
 DFT| Cutoffs: density                                              1.000000E-10
 DFT|          gradient                                             1.000000E-10
 DFT|          tau                                                  1.000000E-10
 DFT|          cutoff_smoothing_range                               0.000000E+00
 DFT| XC density smoothing                                                  NONE
 DFT| XC derivatives                                                          PW
 FUNCTIONAL| ROUTINE=NEW
 FUNCTIONAL| PBE:
 FUNCTIONAL| J.P.Perdew, K.Burke, M.Ernzerhof, Phys. Rev. Letter, vol. 77, n 18,
 FUNCTIONAL|  pp. 3865-3868, (1996){spin unpolarized}                           
 vdW POTENTIAL|                                                   Pair Potential
 vdW POTENTIAL|          DFT-D3 (Version 3.1)
 vdW POTENTIAL|          Potential Form: S. Grimme et al, JCP 132: 154104 (2010)
 vdW POTENTIAL|          Zero Damping
 vdW POTENTIAL|          Cutoff Radius [Bohr]:                             20.00
 vdW POTENTIAL|          s6 Scaling Factor:                               1.0000
 vdW POTENTIAL|          sr6 Scaling Factor:                              1.2170
 vdW POTENTIAL|          s8 Scaling Factor:                               0.7220
 vdW POTENTIAL|          Cutoff for CN calculation:                   0.1000E-05

 QS| Method:                                                                 GPW
 QS| Density plane wave grid type                        NON-SPHERICAL FULLSPACE
 QS| Number of grid levels:                                                    5
 QS| Density cutoff [a.u.]:                                                275.0
 QS| Multi grid cutoff [a.u.]: 1) grid level                               275.0
 QS|                           2) grid level                                91.7
 QS|                           3) grid level                                30.6
 QS|                           4) grid level                                10.2
 QS|                           5) grid level                                 3.4
 QS| Grid level progression factor:                                          3.0
 QS| Relative density cutoff [a.u.]:                                        40.0
 QS| Interaction thresholds: eps_pgf_orb:                                1.0E-06
 QS|                         eps_filter_matrix:                          0.0E+00
 QS|                         eps_core_charge:                            1.0E-14
 QS|                         eps_rho_gspace:                             1.0E-12
 QS|                         eps_rho_rspace:                             1.0E-12
 QS|                         eps_gvg_rspace:                             1.0E-06
 QS|                         eps_ppl:                                    1.0E-02
 QS|                         eps_ppnl:                                   1.0E-08


 ATOMIC KIND INFORMATION

  1. Atomic kind: C                                     Number of atoms:       1

     Orbital Basis Set                                   TZV2P-MOLOPT-PBE-GTH-q4

       Number of orbital shell sets:                                           1
       Number of orbital shells:                                               9
       Number of primitive Cartesian functions:                                5
       Number of Cartesian basis functions:                                   34
       Number of spherical basis functions:                                   29
       Norm type:                                                              2

       Normalised Cartesian orbitals:

                        Set   Shell   Orbital            Exponent    Coefficient

                          1       1    2s                5.599010      -0.388516
                                                         2.008517      -0.222960
                                                         0.755557       0.256069
                                                         0.292158       0.177682
                                                         0.105328       0.019401

                          1       2    3s                5.599010       0.700337
                                                         2.008517       0.202467
                                                         0.755557      -0.073086
                                                         0.292158      -0.004274
                                                         0.105328       0.122810

                          1       3    4s                5.599010      -2.176345
                                                         2.008517      -0.220775
                                                         0.755557       0.109238
                                                         0.292158      -0.129517
                                                         0.105328       0.038801

                          1       4    3px               5.599010      -0.769001
                                                         2.008517      -0.634471
                                                         0.755557      -0.400220
                                                         0.292158      -0.124705
                                                         0.105328      -0.014325
                          1       4    3py               5.599010      -0.769001
                                                         2.008517      -0.634471
                                                         0.755557      -0.400220
                                                         0.292158      -0.124705
                                                         0.105328      -0.014325
                          1       4    3pz               5.599010      -0.769001
                                                         2.008517      -0.634471
                                                         0.755557      -0.400220
                                                         0.292158      -0.124705
                                                         0.105328      -0.014325

                          1       5    4px               5.599010       0.895802
                                                         2.008517       0.817480
                                                         0.755557       0.269326
                                                         0.292158       0.009009
                                                         0.105328      -0.085852
                          1       5    4py               5.599010       0.895802
                                                         2.008517       0.817480
                                                         0.755557       0.269326
                                                         0.292158       0.009009
                                                         0.105328      -0.085852
                          1       5    4pz               5.599010       0.895802
                                                         2.008517       0.817480
                                                         0.755557       0.269326
                                                         0.292158       0.009009
                                                         0.105328      -0.085852

                          1       6    5px               5.599010       1.029767
                                                         2.008517       2.903527
                                                         0.755557       0.336187
                                                         0.292158      -0.258025
                                                         0.105328       0.023472
                          1       6    5py               5.599010       1.029767
                                                         2.008517       2.903527
                                                         0.755557       0.336187
                                                         0.292158      -0.258025
                                                         0.105328       0.023472
                          1       6    5pz               5.599010       1.029767
                                                         2.008517       2.903527
                                                         0.755557       0.336187
                                                         0.292158      -0.258025
                                                         0.105328       0.023472

                          1       7    4dx2              5.599010      -4.629244
                                                         2.008517       1.670071
                                                         0.755557       0.309368
                                                         0.292158       0.124707
                                                         0.105328      -0.001260
                          1       7    4dxy              5.599010      -8.018085
                                                         2.008517       2.892648
                                                         0.755557       0.535841
                                                         0.292158       0.215998
                                                         0.105328      -0.002182
                          1       7    4dxz              5.599010      -8.018085
                                                         2.008517       2.892648
                                                         0.755557       0.535841
                                                         0.292158       0.215998
                                                         0.105328      -0.002182
                          1       7    4dy2              5.599010      -4.629244
                                                         2.008517       1.670071
                                                         0.755557       0.309368
                                                         0.292158       0.124707
                                                         0.105328      -0.001260
                          1       7    4dyz              5.599010      -8.018085
                                                         2.008517       2.892648
                                                         0.755557       0.535841
                                                         0.292158       0.215998
                                                         0.105328      -0.002182
                          1       7    4dz2              5.599010      -4.629244
                                                         2.008517       1.670071
                                                         0.755557       0.309368
                                                         0.292158       0.124707
                                                         0.105328      -0.001260

                          1       8    5dx2              5.599010      -0.765539
                                                         2.008517       0.044731
                                                         0.755557       0.033894
                                                         0.292158       0.006499
                                                         0.105328       0.031042
                          1       8    5dxy              5.599010      -1.325952
                                                         2.008517       0.077477
                                                         0.755557       0.058707
                                                         0.292158       0.011257
                                                         0.105328       0.053766
                          1       8    5dxz              5.599010      -1.325952
                                                         2.008517       0.077477
                                                         0.755557       0.058707
                                                         0.292158       0.011257
                                                         0.105328       0.053766
                          1       8    5dy2              5.599010      -0.765539
                                                         2.008517       0.044731
                                                         0.755557       0.033894
                                                         0.292158       0.006499
                                                         0.105328       0.031042
                          1       8    5dyz              5.599010      -1.325952
                                                         2.008517       0.077477
                                                         0.755557       0.058707
                                                         0.292158       0.011257
                                                         0.105328       0.053766
                          1       8    5dz2              5.599010      -0.765539
                                                         2.008517       0.044731
                                                         0.755557       0.033894
                                                         0.292158       0.006499
                                                         0.105328       0.031042

                          1       9    5fx3              5.599010      -0.150044
                                                         2.008517      -0.042629
                                                         0.755557       0.009866
                                                         0.292158       0.091648
                                                         0.105328       0.000020
                          1       9    5fx2y             5.599010      -0.335509
                                                         2.008517      -0.095321
                                                         0.755557       0.022061
                                                         0.292158       0.204931
                                                         0.105328       0.000045
                          1       9    5fx2z             5.599010      -0.335509
                                                         2.008517      -0.095321
                                                         0.755557       0.022061
                                                         0.292158       0.204931
                                                         0.105328       0.000045
                          1       9    5fxy2             5.599010      -0.335509
                                                         2.008517      -0.095321
                                                         0.755557       0.022061
                                                         0.292158       0.204931
                                                         0.105328       0.000045
                          1       9    5fxyz             5.599010      -0.581119
                                                         2.008517      -0.165100
                                                         0.755557       0.038210
                                                         0.292158       0.354951
                                                         0.105328       0.000078
                          1       9    5fxz2             5.599010      -0.335509
                                                         2.008517      -0.095321
                                                         0.755557       0.022061
                                                         0.292158       0.204931
                                                         0.105328       0.000045
                          1       9    5fy3              5.599010      -0.150044
                                                         2.008517      -0.042629
                                                         0.755557       0.009866
                                                         0.292158       0.091648
                                                         0.105328       0.000020
                          1       9    5fy2z             5.599010      -0.335509
                                                         2.008517      -0.095321
                                                         0.755557       0.022061
                                                         0.292158       0.204931
                                                         0.105328       0.000045
                          1       9    5fyz2             5.599010      -0.335509
                                                         2.008517      -0.095321
                                                         0.755557       0.022061
                                                         0.292158       0.204931
                                                         0.105328       0.000045
                          1       9    5fz3              5.599010      -0.150044
                                                         2.008517      -0.042629
                                                         0.755557       0.009866
                                                         0.292158       0.091648
                                                         0.105328       0.000020

       Atomic covalent radius [Angstrom]:                                  0.770

       Atomic van der Waals radius [Angstrom]:                             1.700

     GTH Potential information for                                    GTH-PBE-q4

       Description:                       Goedecker-Teter-Hutter pseudopotential
                                           Goedecker et al., PRB 54, 1703 (1996)
                                          Hartwigsen et al., PRB 58, 3641 (1998)
                                                      Krack, TCA 114, 145 (2005)

       Gaussian exponent of the core charge distribution:               4.362265
       Electronic configuration (s p d ...):                       2   2   0   0

       Parameters of the local part of the GTH pseudopotential:

                          rloc        C1          C2          C3          C4
                        0.338555   -8.804552    1.338377

       Parameters of the non-local part of the GTH pseudopotential:

                   l      r(l)      h(i,j,l)

                   0    0.302610    9.622862

  2. Atomic kind: O                                     Number of atoms:     114

     Orbital Basis Set                                   TZV2P-MOLOPT-PBE-GTH-q6

       Number of orbital shell sets:                                           1
       Number of orbital shells:                                               9
       Number of primitive Cartesian functions:                                5
       Number of Cartesian basis functions:                                   34
       Number of spherical basis functions:                                   29
       Norm type:                                                              2

       Normalised Cartesian orbitals:

                        Set   Shell   Orbital            Exponent    Coefficient

                          1       1    2s               10.277042      -0.485504
                                                         3.564053      -0.220015
                                                         1.313636       0.373321
                                                         0.488903       0.264765
                                                         0.155332       0.020043

                          1       2    3s               10.277042       0.224066
                                                         3.564053       0.080746
                                                         1.313636      -0.123482
                                                         0.488903      -0.035459
                                                         0.155332       0.195554

                          1       3    4s               10.277042      -3.846583
                                                         3.564053      -0.604002
                                                         1.313636       0.878850
                                                         0.488903      -0.388670
                                                         0.155332       0.020403

                          1       4    3px              10.277042      -1.528218
                                                         3.564053      -1.277699
                                                         1.313636      -0.654740
                                                         0.488903      -0.229926
                                                         0.155332      -0.043447
                          1       4    3py              10.277042      -1.528218
                                                         3.564053      -1.277699
                                                         1.313636      -0.654740
                                                         0.488903      -0.229926
                                                         0.155332      -0.043447
                          1       4    3pz              10.277042      -1.528218
                                                         3.564053      -1.277699
                                                         1.313636      -0.654740
                                                         0.488903      -0.229926
                                                         0.155332      -0.043447

                          1       5    4px              10.277042       2.036465
                                                         3.564053       1.678955
                                                         1.313636       0.821025
                                                         0.488903       0.173956
                                                         0.155332      -0.133459
                          1       5    4py              10.277042       2.036465
                                                         3.564053       1.678955
                                                         1.313636       0.821025
                                                         0.488903       0.173956
                                                         0.155332      -0.133459
                          1       5    4pz              10.277042       2.036465
                                                         3.564053       1.678955
                                                         1.313636       0.821025
                                                         0.488903       0.173956
                                                         0.155332      -0.133459

                          1       6    5px              10.277042       4.160760
                                                         3.564053       3.839534
                                                         1.313636       1.365137
                                                         0.488903      -0.557232
                                                         0.155332       0.019989
                          1       6    5py              10.277042       4.160760
                                                         3.564053       3.839534
                                                         1.313636       1.365137
                                                         0.488903      -0.557232
                                                         0.155332       0.019989
                          1       6    5pz              10.277042       4.160760
                                                         3.564053       3.839534
                                                         1.313636       1.365137
                                                         0.488903      -0.557232
                                                         0.155332       0.019989

                          1       7    4dx2             10.277042      -5.653729
                                                         3.564053       2.384130
                                                         1.313636       0.763128
                                                         0.488903       0.368121
                                                         0.155332      -0.007951
                          1       7    4dxy             10.277042      -9.792547
                                                         3.564053       4.129435
                                                         1.313636       1.321776
                                                         0.488903       0.637605
                                                         0.155332      -0.013772
                          1       7    4dxz             10.277042      -9.792547
                                                         3.564053       4.129435
                                                         1.313636       1.321776
                                                         0.488903       0.637605
                                                         0.155332      -0.013772
                          1       7    4dy2             10.277042      -5.653729
                                                         3.564053       2.384130
                                                         1.313636       0.763128
                                                         0.488903       0.368121
                                                         0.155332      -0.007951
                          1       7    4dyz             10.277042      -9.792547
                                                         3.564053       4.129435
                                                         1.313636       1.321776
                                                         0.488903       0.637605
                                                         0.155332      -0.013772
                          1       7    4dz2             10.277042      -5.653729
                                                         3.564053       2.384130
                                                         1.313636       0.763128
                                                         0.488903       0.368121
                                                         0.155332      -0.007951

                          1       8    5dx2             10.277042      -1.240143
                                                         3.564053       0.370203
                                                         1.313636       0.144297
                                                         0.488903       0.056503
                                                         0.155332       0.057456
                          1       8    5dxy             10.277042      -2.147990
                                                         3.564053       0.641211
                                                         1.313636       0.249929
                                                         0.488903       0.097865
                                                         0.155332       0.099516
                          1       8    5dxz             10.277042      -2.147990
                                                         3.564053       0.641211
                                                         1.313636       0.249929
                                                         0.488903       0.097865
                                                         0.155332       0.099516
                          1       8    5dy2             10.277042      -1.240143
                                                         3.564053       0.370203
                                                         1.313636       0.144297
                                                         0.488903       0.056503
                                                         0.155332       0.057456
                          1       8    5dyz             10.277042      -2.147990
                                                         3.564053       0.641211
                                                         1.313636       0.249929
                                                         0.488903       0.097865
                                                         0.155332       0.099516
                          1       8    5dz2             10.277042      -1.240143
                                                         3.564053       0.370203
                                                         1.313636       0.144297
                                                         0.488903       0.056503
                                                         0.155332       0.057456

                          1       9    5fx3             10.277042      -6.690350
                                                         3.564053       0.340627
                                                         1.313636       0.043047
                                                         0.488903       0.291962
                                                         0.155332      -0.000154
                          1       9    5fx2y            10.277042     -14.960077
                                                         3.564053       0.761664
                                                         1.313636       0.096256
                                                         0.488903       0.652848
                                                         0.155332      -0.000345
                          1       9    5fx2z            10.277042     -14.960077
                                                         3.564053       0.761664
                                                         1.313636       0.096256
                                                         0.488903       0.652848
                                                         0.155332      -0.000345
                          1       9    5fxy2            10.277042     -14.960077
                                                         3.564053       0.761664
                                                         1.313636       0.096256
                                                         0.488903       0.652848
                                                         0.155332      -0.000345
                          1       9    5fxyz            10.277042     -25.911613
                                                         3.564053       1.319241
                                                         1.313636       0.166721
                                                         0.488903       1.130766
                                                         0.155332      -0.000597
                          1       9    5fxz2            10.277042     -14.960077
                                                         3.564053       0.761664
                                                         1.313636       0.096256
                                                         0.488903       0.652848
                                                         0.155332      -0.000345
                          1       9    5fy3             10.277042      -6.690350
                                                         3.564053       0.340627
                                                         1.313636       0.043047
                                                         0.488903       0.291962
                                                         0.155332      -0.000154
                          1       9    5fy2z            10.277042     -14.960077
                                                         3.564053       0.761664
                                                         1.313636       0.096256
                                                         0.488903       0.652848
                                                         0.155332      -0.000345
                          1       9    5fyz2            10.277042     -14.960077
                                                         3.564053       0.761664
                                                         1.313636       0.096256
                                                         0.488903       0.652848
                                                         0.155332      -0.000345
                          1       9    5fz3             10.277042      -6.690350
                                                         3.564053       0.340627
                                                         1.313636       0.043047
                                                         0.488903       0.291962
                                                         0.155332      -0.000154

       Atomic covalent radius [Angstrom]:                                  0.730

       Atomic van der Waals radius [Angstrom]:                             1.520

     GTH Potential information for                                    GTH-PBE-q6

       Description:                       Goedecker-Teter-Hutter pseudopotential
                                           Goedecker et al., PRB 54, 1703 (1996)
                                          Hartwigsen et al., PRB 58, 3641 (1998)
                                                      Krack, TCA 114, 145 (2005)

       Gaussian exponent of the core charge distribution:               8.366479
       Electronic configuration (s p d ...):                       2   4   0   0

       Parameters of the local part of the GTH pseudopotential:

                          rloc        C1          C2          C3          C4
                        0.244463  -16.675482    2.489086

       Parameters of the non-local part of the GTH pseudopotential:

                   l      r(l)      h(i,j,l)

                   0    0.220971   18.334469

  3. Atomic kind: P                                     Number of atoms:       1

     Orbital Basis Set                                   TZV2P-MOLOPT-PBE-GTH-q5

       Number of orbital shell sets:                                           1
       Number of orbital shells:                                               9
       Number of primitive Cartesian functions:                                4
       Number of Cartesian basis functions:                                   34
       Number of spherical basis functions:                                   29
       Norm type:                                                              2

       Normalised Cartesian orbitals:

                        Set   Shell   Orbital            Exponent    Coefficient

                          1       1    2s                1.529974       0.330831
                                                         0.572156      -0.121865
                                                         0.221473      -0.178453
                                                         0.075885      -0.020408

                          1       2    3s                1.529974       0.353664
                                                         0.572156      -0.203423
                                                         0.221473       0.005821
                                                         0.075885       0.111796

                          1       3    4s                1.529974      -1.067157
                                                         0.572156       0.214068
                                                         0.221473      -0.177211
                                                         0.075885       0.057956

                          1       4    3px               1.529974       0.268378
                                                         0.572156      -0.381409
                                                         0.221473      -0.118831
                                                         0.075885      -0.003877
                          1       4    3py               1.529974       0.268378
                                                         0.572156      -0.381409
                                                         0.221473      -0.118831
                                                         0.075885      -0.003877
                          1       4    3pz               1.529974       0.268378
                                                         0.572156      -0.381409
                                                         0.221473      -0.118831
                                                         0.075885      -0.003877

                          1       5    4px               1.529974       0.260904
                                                         0.572156      -0.330883
                                                         0.221473       0.080611
                                                         0.075885       0.048633
                          1       5    4py               1.529974       0.260904
                                                         0.572156      -0.330883
                                                         0.221473       0.080611
                                                         0.075885       0.048633
                          1       5    4pz               1.529974       0.260904
                                                         0.572156      -0.330883
                                                         0.221473       0.080611
                                                         0.075885       0.048633

                          1       6    5px               1.529974       0.623329
                                                         0.572156       0.730611
                                                         0.221473      -0.234303
                                                         0.075885       0.056701
                          1       6    5py               1.529974       0.623329
                                                         0.572156       0.730611
                                                         0.221473      -0.234303
                                                         0.075885       0.056701
                          1       6    5pz               1.529974       0.623329
                                                         0.572156       0.730611
                                                         0.221473      -0.234303
                                                         0.075885       0.056701

                          1       7    4dx2              1.529974       0.641565
                                                         0.572156       0.349115
                                                         0.221473       0.047365
                                                         0.075885       0.000033
                          1       7    4dxy              1.529974       1.111223
                                                         0.572156       0.604685
                                                         0.221473       0.082039
                                                         0.075885       0.000058
                          1       7    4dxz              1.529974       1.111223
                                                         0.572156       0.604685
                                                         0.221473       0.082039
                                                         0.075885       0.000058
                          1       7    4dy2              1.529974       0.641565
                                                         0.572156       0.349115
                                                         0.221473       0.047365
                                                         0.075885       0.000033
                          1       7    4dyz              1.529974       1.111223
                                                         0.572156       0.604685
                                                         0.221473       0.082039
                                                         0.075885       0.000058
                          1       7    4dz2              1.529974       0.641565
                                                         0.572156       0.349115
                                                         0.221473       0.047365
                                                         0.075885       0.000033

                          1       8    5dx2              1.529974      -0.416790
                                                         0.572156       0.702038
                                                         0.221473      -0.180280
                                                         0.075885       0.002500
                          1       8    5dxy              1.529974      -0.721901
                                                         0.572156       1.215965
                                                         0.221473      -0.312254
                                                         0.075885       0.004331
                          1       8    5dxz              1.529974      -0.721901
                                                         0.572156       1.215965
                                                         0.221473      -0.312254
                                                         0.075885       0.004331
                          1       8    5dy2              1.529974      -0.416790
                                                         0.572156       0.702038
                                                         0.221473      -0.180280
                                                         0.075885       0.002500
                          1       8    5dyz              1.529974      -0.721901
                                                         0.572156       1.215965
                                                         0.221473      -0.312254
                                                         0.075885       0.004331
                          1       8    5dz2              1.529974      -0.416790
                                                         0.572156       0.702038
                                                         0.221473      -0.180280
                                                         0.075885       0.002500

                          1       9    5fx3              1.529974       0.452264
                                                         0.572156       0.259688
                                                         0.221473       0.022786
                                                         0.075885      -0.000501
                          1       9    5fx2y             1.529974       1.011293
                                                         0.572156       0.580680
                                                         0.221473       0.050951
                                                         0.075885      -0.001120
                          1       9    5fx2z             1.529974       1.011293
                                                         0.572156       0.580680
                                                         0.221473       0.050951
                                                         0.075885      -0.001120
                          1       9    5fxy2             1.529974       1.011293
                                                         0.572156       0.580680
                                                         0.221473       0.050951
                                                         0.075885      -0.001120
                          1       9    5fxyz             1.529974       1.751610
                                                         0.572156       1.005767
                                                         0.221473       0.088251
                                                         0.075885      -0.001939
                          1       9    5fxz2             1.529974       1.011293
                                                         0.572156       0.580680
                                                         0.221473       0.050951
                                                         0.075885      -0.001120
                          1       9    5fy3              1.529974       0.452264
                                                         0.572156       0.259688
                                                         0.221473       0.022786
                                                         0.075885      -0.000501
                          1       9    5fy2z             1.529974       1.011293
                                                         0.572156       0.580680
                                                         0.221473       0.050951
                                                         0.075885      -0.001120
                          1       9    5fyz2             1.529974       1.011293
                                                         0.572156       0.580680
                                                         0.221473       0.050951
                                                         0.075885      -0.001120
                          1       9    5fz3              1.529974       0.452264
                                                         0.572156       0.259688
                                                         0.221473       0.022786
                                                         0.075885      -0.000501

       Atomic covalent radius [Angstrom]:                                  1.060

       Atomic van der Waals radius [Angstrom]:                             1.800

     GTH Potential information for                                    GTH-PBE-q5

       Description:                       Goedecker-Teter-Hutter pseudopotential
                                           Goedecker et al., PRB 54, 1703 (1996)
                                          Hartwigsen et al., PRB 58, 3641 (1998)
                                                      Krack, TCA 114, 145 (2005)

       Gaussian exponent of the core charge distribution:               2.702572
       Electronic configuration (s p d ...):                       2   3   0   0

       Parameters of the local part of the GTH pseudopotential:

                          rloc        C1          C2          C3          C4
                        0.430127   -5.862875

       Parameters of the non-local part of the GTH pseudopotential:

                   l      r(l)      h(i,j,l)

                   0    0.396379   11.009068   -3.470357
                                   -3.470357    4.480230
                   1    0.448294    3.056058

  4. Atomic kind: H                                     Number of atoms:     225

     Orbital Basis Set                                   TZV2P-MOLOPT-PBE-GTH-q1

       Number of orbital shell sets:                                           1
       Number of orbital shells:                                               6
       Number of primitive Cartesian functions:                                5
       Number of Cartesian basis functions:                                   15
       Number of spherical basis functions:                                   14
       Norm type:                                                              2

       Normalised Cartesian orbitals:

                        Set   Shell   Orbital            Exponent    Coefficient

                          1       1    2s                9.586642       0.069481
                                                         2.202360       0.112147
                                                         0.604094       0.130550
                                                         0.146498       0.088477
                                                         0.139526       0.035929

                          1       2    3s                9.586642      -0.087313
                                                         2.202360      -0.117928
                                                         0.604094      -0.099372
                                                         0.146498      -0.105375
                                                         0.139526       0.287433

                          1       3    4s                9.586642       0.882480
                                                         2.202360       0.096105
                                                         0.604094      -0.739894
                                                         0.146498       0.120904
                                                         0.139526       0.013904

                          1       4    3px               9.586642      -2.186125
                                                         2.202360       1.112625
                                                         0.604094       0.330981
                                                         0.146498       0.087385
                                                         0.139526      -0.016905
                          1       4    3py               9.586642      -2.186125
                                                         2.202360       1.112625
                                                         0.604094       0.330981
                                                         0.146498       0.087385
                                                         0.139526      -0.016905
                          1       4    3pz               9.586642      -2.186125
                                                         2.202360       1.112625
                                                         0.604094       0.330981
                                                         0.146498       0.087385
                                                         0.139526      -0.016905

                          1       5    4px               9.586642       1.866908
                                                         2.202360       0.174551
                                                         0.604094       0.060190
                                                         0.146498       0.014182
                                                         0.139526       0.100545
                          1       5    4py               9.586642       1.866908
                                                         2.202360       0.174551
                                                         0.604094       0.060190
                                                         0.146498       0.014182
                                                         0.139526       0.100545
                          1       5    4pz               9.586642       1.866908
                                                         2.202360       0.174551
                                                         0.604094       0.060190
                                                         0.146498       0.014182
                                                         0.139526       0.100545

                          1       6    4dx2              9.586642       0.111501
                                                         2.202360      -0.020603
                                                         0.604094      -0.012612
                                                         0.146498      -0.000171
                                                         0.139526       0.052995
                          1       6    4dxy              9.586642       0.193125
                                                         2.202360      -0.035686
                                                         0.604094      -0.021844
                                                         0.146498      -0.000296
                                                         0.139526       0.091790
                          1       6    4dxz              9.586642       0.193125
                                                         2.202360      -0.035686
                                                         0.604094      -0.021844
                                                         0.146498      -0.000296
                                                         0.139526       0.091790
                          1       6    4dy2              9.586642       0.111501
                                                         2.202360      -0.020603
                                                         0.604094      -0.012612
                                                         0.146498      -0.000171
                                                         0.139526       0.052995
                          1       6    4dyz              9.586642       0.193125
                                                         2.202360      -0.035686
                                                         0.604094      -0.021844
                                                         0.146498      -0.000296
                                                         0.139526       0.091790
                          1       6    4dz2              9.586642       0.111501
                                                         2.202360      -0.020603
                                                         0.604094      -0.012612
                                                         0.146498      -0.000171
                                                         0.139526       0.052995

       Atomic covalent radius [Angstrom]:                                  0.320

       Atomic van der Waals radius [Angstrom]:                             1.090

     GTH Potential information for                                    GTH-PBE-q1

       Description:                       Goedecker-Teter-Hutter pseudopotential
                                           Goedecker et al., PRB 54, 1703 (1996)
                                          Hartwigsen et al., PRB 58, 3641 (1998)
                                                      Krack, TCA 114, 145 (2005)

       Gaussian exponent of the core charge distribution:              12.426182
       Electronic configuration (s p d ...):                       1   0   0   0

       Parameters of the local part of the GTH pseudopotential:

                          rloc        C1          C2          C3          C4
                        0.200593   -4.178068    0.724409


 MOLECULE KIND INFORMATION


 All atoms are their own molecule, skipping detailed information


 TOTAL NUMBERS AND MAXIMUM NUMBERS

  Total number of            - Atomic kinds:                                   4
                             - Atoms:                                        341
                             - Shell sets:                                   341
                             - Shells:                                      2394
                             - Primitive Cartesian functions:               1704
                             - Cartesian basis functions:                   7319
                             - Spherical basis functions:                   6514

  Maximum angular momentum of- Orbital basis functions:                        3
                             - Local part of the GTH pseudopotential:          2
                             - Non-local part of the GTH pseudopotential:      2


 MODULE QUICKSTEP:  ATOMIC COORDINATES IN angstrom

 Atom  Kind  Element       X           Y           Z          Z(eff)       Mass
    1   1 C    6       6.116020   10.297050    9.082909       4.0000     12.0107
    2   2 O    8       6.818600    9.109320    8.604610       6.0000     15.9994
    3   3 P   15       6.771400    7.728260    9.454130       5.0000     30.9738
    4   2 O    8       5.260980    7.399700    9.735570       6.0000     15.9994
    5   2 O    8       7.394430    8.109910   10.868350       6.0000     15.9994
    6   2 O    8       7.466000    6.687570    8.679720       6.0000     15.9994
    7   4 H    1       6.759670   11.158750    8.882930       1.0000      1.0079
    8   4 H    1       5.929710   10.227280   10.162090       1.0000      1.0079
    9   4 H    1       5.169800   10.405650    8.543170       1.0000      1.0079
   10   4 H    1       4.757170    7.736830   10.545649       1.0000      1.0079
   11   4 H    1       8.386970    8.318190   10.758690       1.0000      1.0079
   12   2 O    8      12.599000    8.193000   11.837499       6.0000     15.9994
   13   4 H    1      12.847000    9.102000   11.669500       1.0000      1.0079
   14   4 H    1      13.269000    7.675000   11.391500       1.0000      1.0079
   15   2 O    8       3.753000    5.689000    7.523500       6.0000     15.9994
   16   4 H    1       3.985000    5.571000    8.444500       1.0000      1.0079
   17   4 H    1       4.104000    6.549000    7.295500       1.0000      1.0079
   18   2 O    8      11.566000    7.643000   14.461500       6.0000     15.9994
   19   4 H    1      12.022000    7.774000   13.630500       1.0000      1.0079
   20   4 H    1      11.524000    8.516000   14.852500       1.0000      1.0079
   21   2 O    8       1.641000    6.240000    9.679499       6.0000     15.9994
   22   4 H    1       1.682000    7.192000    9.587499       1.0000      1.0079
   23   4 H    1       0.707000    6.034000    9.625500       1.0000      1.0079
   24   2 O    8       5.957000   14.603000    1.939500       6.0000     15.9994
   25   4 H    1       5.350000   13.917000    1.661500       1.0000      1.0079
   26   4 H    1       6.346000   14.924000    1.126500       1.0000      1.0079
   27   2 O    8      12.908000    4.382000    2.449500       6.0000     15.9994
   28   4 H    1      12.272000    3.732000    2.747500       1.0000      1.0079
   29   4 H    1      12.713000    5.164000    2.965500       1.0000      1.0079
   30   2 O    8      11.834000    8.971000    1.338500       6.0000     15.9994
   31   4 H    1      11.188000    8.802000    2.024500       1.0000      1.0079
   32   4 H    1      11.317000    9.264000    0.588500       1.0000      1.0079
   33   2 O    8       0.069000   15.526000    7.711500       6.0000     15.9994
   34   4 H    1       0.008000   15.591000    8.664500       1.0000      1.0079
   35   4 H    1       0.970000   15.247000    7.547500       1.0000      1.0079
   36   2 O    8       2.277000   15.180000   12.021499       6.0000     15.9994
   37   4 H    1       3.040000   15.578000   11.602500       1.0000      1.0079
   38   4 H    1       2.464000   14.241000   12.018500       1.0000      1.0079
   39   2 O    8       8.922000   12.524000    9.391500       6.0000     15.9994
   40   4 H    1       8.676000   12.119000   10.222500       1.0000      1.0079
   41   4 H    1       9.704001   12.045000    9.113499       1.0000      1.0079
   42   2 O    8       4.958000    8.112000    6.115500       6.0000     15.9994
   43   4 H    1       4.068000    8.400000    6.316500       1.0000      1.0079
   44   4 H    1       5.474000    8.918000    6.102500       1.0000      1.0079
   45   2 O    8       3.887000    1.523000    7.451500       6.0000     15.9994
   46   4 H    1       3.367000    0.964000    6.875500       1.0000      1.0079
   47   4 H    1       4.191000    2.234000    6.886500       1.0000      1.0079
   48   2 O    8       9.089000   14.570000    3.719500       6.0000     15.9994
   49   4 H    1       9.444000   13.782000    4.131500       1.0000      1.0079
   50   4 H    1       8.185000   14.342000    3.505500       1.0000      1.0079
   51   2 O    8       7.135000    7.368000   14.289500       6.0000     15.9994
   52   4 H    1       6.339000    7.634000   14.749500       1.0000      1.0079
   53   4 H    1       6.838000    6.722000   13.649500       1.0000      1.0079
   54   2 O    8       2.526000    0.768000   12.565500       6.0000     15.9994
   55   4 H    1       3.058000    0.769000   11.769500       1.0000      1.0079
   56   4 H    1       2.638000    1.646000   12.929499       1.0000      1.0079
   57   2 O    8       2.936000    0.673000    4.572500       6.0000     15.9994
   58   4 H    1       2.869000    0.257000    3.712500       1.0000      1.0079
   59   4 H    1       2.465000    1.501000    4.475500       1.0000      1.0079
   60   2 O    8       6.164000    8.022000    2.895500       6.0000     15.9994
   61   4 H    1       5.637000    7.742000    3.644500       1.0000      1.0079
   62   4 H    1       6.671000    7.246000    2.655500       1.0000      1.0079
   63   2 O    8       4.356000   12.444000    1.305500       6.0000     15.9994
   64   4 H    1       4.724000   11.760000    1.864500       1.0000      1.0079
   65   4 H    1       4.200000   12.011000    0.466500       1.0000      1.0079
   66   2 O    8       3.938000    8.182000   11.841500       6.0000     15.9994
   67   4 H    1       2.994000    8.335000   11.880500       1.0000      1.0079
   68   4 H    1       4.327000    9.040000   12.010500       1.0000      1.0079
   69   2 O    8       8.102000    1.698000   11.380500       6.0000     15.9994
   70   4 H    1       7.381000    2.327000   11.377499       1.0000      1.0079
   71   4 H    1       8.830000    2.169000   11.786500       1.0000      1.0079
   72   2 O    8      14.537000    8.618000    5.461500       6.0000     15.9994
   73   4 H    1      13.990000    9.370000    5.685500       1.0000      1.0079
   74   4 H    1      14.511000    8.061000    6.239500       1.0000      1.0079
   75   2 O    8      14.334000   14.374000   14.175500       6.0000     15.9994
   76   4 H    1      13.979000   15.260000   14.251500       1.0000      1.0079
   77   4 H    1      14.149000   13.967000   15.021499       1.0000      1.0079
   78   2 O    8      11.794000   13.156000   12.823499       6.0000     15.9994
   79   4 H    1      11.663000   14.092000   12.669500       1.0000      1.0079
   80   4 H    1      12.377000   13.116000   13.581500       1.0000      1.0079
   81   2 O    8      12.778000    6.759000    3.990500       6.0000     15.9994
   82   4 H    1      12.132000    6.945000    4.672500       1.0000      1.0079
   83   4 H    1      13.327000    7.542000    3.960500       1.0000      1.0079
   84   2 O    8       5.596000   10.748000    2.980500       6.0000     15.9994
   85   4 H    1       5.579000   10.869000    3.929500       1.0000      1.0079
   86   4 H    1       5.836000    9.829000    2.860500       1.0000      1.0079
   87   2 O    8      12.561000   14.345000    3.720500       6.0000     15.9994
   88   4 H    1      12.527001   15.293000    3.595500       1.0000      1.0079
   89   4 H    1      13.411000   14.188000    4.132500       1.0000      1.0079
   90   2 O    8       2.317000    8.324000    6.542500       6.0000     15.9994
   91   4 H    1       1.996000    7.480000    6.223500       1.0000      1.0079
   92   4 H    1       2.174000    8.294000    7.488500       1.0000      1.0079
   93   2 O    8       4.639000   10.068000   15.556500       6.0000     15.9994
   94   4 H    1       4.489000    9.133000   15.694500       1.0000      1.0079
   95   4 H    1       3.867000   10.493000   15.931500       1.0000      1.0079
   96   2 O    8      11.174000    2.535000    3.483500       6.0000     15.9994
   97   4 H    1      11.874000    2.048000    3.917500       1.0000      1.0079
   98   4 H    1      10.414000    2.422000    4.054500       1.0000      1.0079
   99   2 O    8      15.016000    4.340000    4.075500       6.0000     15.9994
  100   4 H    1      14.485000    4.673000    3.351500       1.0000      1.0079
  101   4 H    1      15.650000    5.036000    4.246500       1.0000      1.0079
  102   2 O    8      10.001000    8.341000   10.569500       6.0000     15.9994
  103   4 H    1      10.627000    8.832000   11.101499       1.0000      1.0079
  104   4 H    1      10.352000    8.389000    9.680500       1.0000      1.0079
  105   2 O    8       6.901000    4.067000   14.651500       6.0000     15.9994
  106   4 H    1       6.156000    4.394000   15.155500       1.0000      1.0079
  107   4 H    1       7.669000    4.350000   15.147500       1.0000      1.0079
  108   2 O    8       7.469000    3.808000    8.164500       6.0000     15.9994
  109   4 H    1       7.111000    3.682000    7.285500       1.0000      1.0079
  110   4 H    1       7.081000    4.630000    8.465500       1.0000      1.0079
  111   2 O    8       4.634000    3.306000    5.542500       6.0000     15.9994
  112   4 H    1       4.883000    4.219000    5.683500       1.0000      1.0079
  113   4 H    1       5.229000    2.997000    4.859500       1.0000      1.0079
  114   2 O    8      13.257000    3.765000    6.122500       6.0000     15.9994
  115   4 H    1      13.138000    2.860000    5.833500       1.0000      1.0079
  116   4 H    1      13.976000    4.096000    5.583500       1.0000      1.0079
  117   2 O    8       2.202000   13.719000    0.465500       6.0000     15.9994
  118   4 H    1       1.849000   12.904000    0.107500       1.0000      1.0079
  119   4 H    1       2.887000   13.438000    1.072500       1.0000      1.0079
  120   2 O    8      13.125000   10.777000   11.542499       6.0000     15.9994
  121   4 H    1      12.627000   11.338000   12.136500       1.0000      1.0079
  122   4 H    1      13.927000   11.267000   11.363499       1.0000      1.0079
  123   2 O    8      15.502000    6.774000    7.459500       6.0000     15.9994
  124   4 H    1      15.692000    6.239000    6.689500       1.0000      1.0079
  125   4 H    1      15.519000    6.157000    8.191499       1.0000      1.0079
  126   2 O    8       8.110000   12.585000    6.724500       6.0000     15.9994
  127   4 H    1       8.172000   12.491000    7.674500       1.0000      1.0079
  128   4 H    1       9.015000   12.701000    6.434500       1.0000      1.0079
  129   2 O    8       7.485000   15.558000    7.109500       6.0000     15.9994
  130   4 H    1       7.560000   14.725000    6.643500       1.0000      1.0079
  131   4 H    1       8.301000   15.630000    7.604500       1.0000      1.0079
  132   2 O    8      14.419000    8.223000    0.784500       6.0000     15.9994
  133   4 H    1      14.301000    7.273000    0.750500       1.0000      1.0079
  134   4 H    1      13.557000    8.564000    1.020500       1.0000      1.0079
  135   2 O    8       2.895000   11.478000    9.553500       6.0000     15.9994
  136   4 H    1       2.023000   11.709000    9.234500       1.0000      1.0079
  137   4 H    1       3.086000   12.133000   10.224499       1.0000      1.0079
  138   2 O    8       6.810000    0.848000    7.841500       6.0000     15.9994
  139   4 H    1       7.143000    1.165000    8.681500       1.0000      1.0079
  140   4 H    1       5.858000    0.862000    7.939500       1.0000      1.0079
  141   2 O    8       4.661000   10.792000   12.802500       6.0000     15.9994
  142   4 H    1       4.472000   10.526000   13.701500       1.0000      1.0079
  143   4 H    1       5.275000   11.521000   12.891500       1.0000      1.0079
  144   2 O    8       8.342000   10.666000    2.064500       6.0000     15.9994
  145   4 H    1       7.825000   10.984000    2.804500       1.0000      1.0079
  146   4 H    1       7.795000   10.836000    1.298500       1.0000      1.0079
  147   2 O    8       1.717000    5.787000    5.725500       6.0000     15.9994
  148   4 H    1       2.406000    5.816000    6.388500       1.0000      1.0079
  149   4 H    1       2.184000    5.826000    4.891500       1.0000      1.0079
  150   2 O    8       9.699000   14.517000   15.310500       6.0000     15.9994
  151   4 H    1       9.902001   14.303000   14.399500       1.0000      1.0079
  152   4 H    1      10.476000   14.246000   15.799500       1.0000      1.0079
  153   2 O    8      14.293000    0.971000    8.122500       6.0000     15.9994
  154   4 H    1      13.413000    0.623000    7.976500       1.0000      1.0079
  155   4 H    1      14.221000    1.471000    8.935500       1.0000      1.0079
  156   2 O    8      14.692000   12.965000    6.264500       6.0000     15.9994
  157   4 H    1      15.273000   12.647000    5.573500       1.0000      1.0079
  158   4 H    1      15.280000   13.214000    6.977500       1.0000      1.0079
  159   2 O    8       8.554000    6.265000    2.004500       6.0000     15.9994
  160   4 H    1       8.731000    5.386000    2.339500       1.0000      1.0079
  161   4 H    1       8.707000    6.199000    1.062500       1.0000      1.0079
  162   2 O    8       0.938000   11.251000   14.666500       6.0000     15.9994
  163   4 H    1       0.832000   10.375000   15.036500       1.0000      1.0079
  164   4 H    1       1.546000   11.690000   15.262500       1.0000      1.0079
[...]
     29      4      H          -0.00718787     0.02073794     0.01163347
     30      2      O           0.03168689     0.00826575    -0.01272573
     31      4      H          -0.02532116    -0.01471879     0.02242615
     32      4      H          -0.00862640     0.00535237    -0.00585367
     33      2      O           0.00037311    -0.03135311    -0.03364753
     34      4      H           0.00112428    -0.00767566     0.00732873
     35      4      H           0.01831525    -0.00279608     0.00036929
     36      2      O          -0.04867350    -0.17573062    -0.05290990
     37      4      H           0.00762684    -0.04459707    -0.01662878
     38      4      H           0.00418985    -0.03057249    -0.00924199
     39      2      O          -0.02286110     0.01731267    -0.02224581
     40      4      H          -0.00133786    -0.00488886     0.01963962
     41      4      H           0.02027868    -0.01111966     0.00108241
     42      2      O           0.02035707    -0.01940989    -0.00882454
     43      4      H          -0.03058742     0.00391231     0.00192686
     44      4      H           0.01387533     0.01765959     0.00221095
     45      2      O           0.00283861    -0.01410277     0.02541492
     46      4      H          -0.00947118    -0.00787476    -0.01134731
     47      4      H           0.00741799     0.02076342    -0.01819287
     48      2      O           0.01134545     0.01713522    -0.00762409
     49      4      H           0.00180950    -0.01171348     0.00681487
     50      4      H          -0.01709450    -0.00530476    -0.00500641
     51      2      O           0.01774321     0.01271751     0.01150983
     52      4      H          -0.01102209     0.00241582     0.00466704
     53      4      H          -0.00603119    -0.01295935    -0.01647233
     54      2      O           0.00486446     0.17299462     0.07651275
     55      4      H           0.01253800     0.04987380    -0.00943040
     56      4      H           0.01487307     0.02768945     0.00279420
     57      2      O           0.01544068    -0.02649887     0.01225529
     58      4      H          -0.00019241    -0.00669035    -0.01085712
     59      4      H          -0.01285357     0.02932815     0.00011574
     60      2      O          -0.00511318     0.01741845    -0.00836778
     61      4      H          -0.00912798    -0.00572738     0.01679459
     62      4      H           0.01390743    -0.01173043    -0.00519884
     63      2      O          -0.01339909     0.02243792    -0.00990288
     64      4      H           0.01661772    -0.02487602     0.02809356
     65      4      H           0.00531879     0.00518014    -0.01148099
     66      2      O           0.01148144    -0.02148716    -0.00223916
     67      4      H          -0.02632366     0.00334223    -0.00153439
     68      4      H           0.01155231     0.02555736     0.00872352
     69      2      O           0.00775349    -0.00365966    -0.01247542
     70      4      H          -0.01512011     0.00569822    -0.00051602
     71      4      H           0.01496571     0.01471171     0.01576245
     72      2      O           0.00009305     0.00121663    -0.01613204
     73      4      H          -0.00130509     0.00652821     0.00312420
     74      4      H           0.00412869    -0.01385479     0.01446856
     75      2      O           0.00151242    -0.01057482    -0.02014338
     76      4      H          -0.00391663     0.01410659     0.00879613
     77      4      H           0.00043472    -0.00478149     0.01872187
     78      2      O          -0.01061114    -0.01639171    -0.00876956
     79      4      H           0.00117236     0.01637029    -0.00904185
     80      4      H           0.01272740     0.00320905     0.01350773
     81      2      O          -0.00415976    -0.01523378    -0.01260401
     82      4      H          -0.00908536     0.00043410     0.00864589
     83      4      H           0.01465939     0.01208582     0.00216861
     84      2      O          -0.00383538     0.01794261    -0.02462279
     85      4      H           0.00209622     0.00462487     0.03028439
     86      4      H           0.00524411    -0.02426184    -0.00491942
     87      2      O          -0.01262904    -0.00941120    -0.00474666
     88      4      H          -0.00496794     0.01917375    -0.00099196
     89      4      H           0.01376169    -0.00597140     0.00704737
     90      2      O           0.01732398     0.02121882    -0.00428647
     91      4      H          -0.01430437    -0.01840774    -0.01155678
     92      4      H          -0.00817922     0.00232134     0.01718924
     93      2      O           0.01260683     0.00905919    -0.01020162
     94      4      H          -0.00252257    -0.01561343     0.00347808
     95      4      H          -0.01600803    -0.00173402     0.00853731
     96      2      O          -0.00589073     0.01136998    -0.02637416
     97      4      H           0.01749125    -0.01207230     0.01242871
     98      4      H          -0.01588885    -0.00070940     0.01702462
     99      2      O           0.01016205    -0.01078383     0.02137587
    100      4      H          -0.01499239    -0.00252389    -0.01549793
    101      4      H           0.00991450     0.01157001     0.00039431
    102      2      O          -0.01569933    -0.00634923     0.00523233
    103      4      H           0.01106700     0.00274261     0.01020256
    104      4      H           0.00241744     0.00011975    -0.01593352
    105      2      O           0.00399563    -0.00128874    -0.01735892
    106      4      H          -0.01193438     0.00508335     0.00856242
    107      4      H           0.01311894    -0.00068626     0.00898088
    108      2      O           0.01238976    -0.01452993     0.00947042
    109      4      H          -0.00699902    -0.00278947    -0.01159219
    110      4      H          -0.00361377     0.01827296     0.00353726
    111      2      O          -0.01740990    -0.00890069     0.00549227
    112      4      H           0.00993188     0.01845610     0.00640385
    113      4      H           0.01012332    -0.00459097    -0.01072176
    114      2      O          -0.02524774     0.01441467     0.02494441
    115      4      H           0.00773356    -0.01494404    -0.00601511
    116      4      H           0.01473713     0.00692061    -0.01880125
    117      2      O          -0.01384220     0.02226807    -0.01222013
    118      4      H          -0.00813327    -0.00296192     0.00285737
    119      4      H           0.01384181    -0.00763067     0.01393996
    120      2      O          -0.02125361    -0.02861407    -0.00264793
    121      4      H          -0.01082678     0.01332757     0.00901434
    122      4      H           0.02273546     0.01906676    -0.00967753
    123      2      O          -0.00435051     0.02448143     0.00248498
    124      4      H           0.00623699    -0.00936693    -0.01433653
    125      4      H          -0.00823173    -0.01795242     0.00483783
    126      2      O          -0.02346291    -0.00295891    -0.01972418
    127      4      H           0.00153997     0.00023640     0.02612072
    128      4      H           0.02229973     0.00152421    -0.00807567
    129      2      O           0.06901139    -0.15261085    -0.10446077
    130      4      H           0.01854703    -0.04722233    -0.02476759
    131      4      H           0.01413123    -0.00104388     0.00514167
    132      2      O           0.03680857     0.00497569    -0.01112327
    133      4      H          -0.00491111    -0.01309149     0.00116890
    134      4      H          -0.02867266     0.00736702     0.00757622
    135      2      O          -0.00042741    -0.02790232    -0.02353597
    136      4      H          -0.01180027     0.00775169    -0.00672614
    137      4      H           0.01630021     0.02294400     0.01672892
    138      2      O          -0.05987944     0.20553314     0.07953942
    139      4      H           0.00352437     0.02066089     0.02469954
    140      4      H          -0.02845251     0.00743798     0.00339307
    141      2      O          -0.01994954    -0.01484683    -0.02378337
    142      4      H          -0.00049814    -0.00634040     0.02036223
    143      4      H           0.02001277     0.01660247     0.00231245
    144      2      O           0.02234195    -0.00516113    -0.00656471
    145      4      H          -0.01384832     0.00491825     0.01152358
    146      4      H          -0.01007537     0.00377686    -0.00886736
    147      2      O          -0.03583397     0.00336399    -0.00294963
    148      4      H           0.02453614    -0.01119523     0.02662345
    149      4      H           0.01613085    -0.00279493    -0.02316918
    150      2      O          -0.01732172     0.00415387     0.00421918
    151      4      H           0.00200263    -0.00370635    -0.01409295
    152      4      H           0.01307405    -0.00239861     0.00893168
    153      2      O           0.01675681     0.03081463     0.00095306
    154      4      H          -0.00618824    -0.00459118    -0.00318018
    155      4      H          -0.01114606     0.01608611     0.00884216
    156      2      O          -0.02254198    -0.00625013    -0.00176461
    157      4      H           0.01089757    -0.00865109    -0.01120499
    158      4      H           0.01268365     0.01474479     0.01348071
    159      2      O          -0.02100386     0.01205643     0.00431277
    160      4      H           0.00522827    -0.02552017     0.00719226
    161      4      H           0.00276649     0.00151358    -0.01515260
    162      2      O          -0.00984244     0.00764538    -0.01367601
    163      4      H          -0.00437587    -0.01595280     0.01007330
    164      4      H           0.00857392     0.00236932     0.00969746
    165      2      O          -0.00948759    -0.00285766     0.00234648
    166      4      H           0.00877881    -0.00859602    -0.01046929
    167      4      H           0.01883837     0.01008428     0.01250682
    168      2      O           0.01138498     0.01606220    -0.00581768
    169      4      H           0.00025623    -0.01957848    -0.00279031
    170      4      H          -0.01396163    -0.00108957     0.00599148
    171      2      O           0.00596392    -0.01198408    -0.01863756
    172      4      H           0.01011254     0.00725410    -0.00134135
    173      4      H          -0.01317925    -0.00410918     0.01358251
    174      2      O           0.01245467    -0.01059876     0.00677617
    175      4      H           0.01128012     0.01598958     0.00672483
    176      4      H          -0.01086645     0.01506368    -0.01063069
    177      2      O           0.00999878    -0.01563650    -0.00874685
    178      4      H           0.00234041     0.01137177     0.01901147
    179      4      H          -0.00911737     0.00381052    -0.01158749
    180      2      O          -0.02317698     0.01069171    -0.00136856
    181      4      H           0.01165603     0.00447059     0.00245543
    182      4      H           0.00265584    -0.01576870     0.00063704
    183      2      O          -0.01196892     0.00651840    -0.01507993
    184      4      H          -0.00621966    -0.01312646     0.01999963
    185      4      H           0.01731472    -0.00101810    -0.00292096
    186      2      O           0.00540203    -0.00703619     0.02467392
    187      4      H          -0.01335920    -0.00331413    -0.00727015
    188      4      H           0.00763396     0.00580435    -0.01294779
    189      2      O          -0.01546551    -0.00987362    -0.00024587
    190      4      H           0.02537988    -0.00291671    -0.01127403
    191      4      H          -0.00448613     0.01170343     0.00859372
    192      2      O           0.03151098     0.01491009     0.01416676
    193      4      H          -0.00482436    -0.02119851    -0.00560845
    194      4      H          -0.01452097     0.02024659    -0.00426310
    195      2      O          -0.03127663    -0.00166145    -0.03150801
    196      4      H           0.01032516    -0.00864423    -0.00675860
    197      4      H          -0.00033143    -0.01248896     0.02389678
    198      2      O          -0.01242105     0.02093245    -0.00270540
    199      4      H          -0.00167850    -0.01914138    -0.00083024
    200      4      H           0.01290028     0.00672461     0.00828385
    201      2      O          -0.01994593     0.00190980     0.01058013
    202      4      H           0.00997990    -0.01370021     0.00154315
    203      4      H           0.01309569     0.01687330    -0.00671864
    204      2      O          -0.01954164    -0.01339523     0.02102501
    205      4      H           0.01655818     0.02024270    -0.00343648
    206      4      H          -0.00394525     0.00650735    -0.02034557
    207      2      O          -0.02757471    -0.00476386    -0.00640328
    208      4      H           0.00979881     0.00261110    -0.01136241
    209      4      H           0.01061956     0.00544851     0.01502128
    210      2      O          -0.02369504     0.00767357    -0.01362188
    211      4      H           0.01762785     0.00860239     0.00318316
    212      4      H           0.00175186    -0.02050713     0.01478484
    213      2      O           0.00539488    -0.01403269     0.02105664
    214      4      H           0.00298872     0.01685170    -0.01179308
    215      4      H          -0.00926264    -0.00220361    -0.01266415
    216      2      O           0.00272519    -0.00920010     0.01290861
    217      4      H          -0.01384698     0.00646437    -0.00747665
    218      4      H           0.01384717     0.00227344    -0.00673097
    219      2      O          -0.01707059     0.00121015     0.00094349
    220      4      H           0.00965698    -0.00208021    -0.02115039
    221      4      H           0.01218067     0.00157919     0.01654868
    222      2      O          -0.00719890     0.01102544    -0.01271019
    223      4      H           0.01576990    -0.00410814     0.00325252
    224      4      H          -0.01737363     0.00003610     0.00169029
    225      2      O          -0.01403562    -0.00526055     0.01487960
    226      4      H          -0.00745014     0.01398598    -0.01251645
    227      4      H           0.02357495    -0.01134688     0.00264014
    228      2      O           0.00503263    -0.01086869    -0.01693118
    229      4      H           0.01284558     0.00051895     0.01044193
    230      4      H          -0.01574122     0.00516639     0.00162313
    231      2      O          -0.00004919    -0.00186234    -0.01505129
    232      4      H           0.00188659    -0.01436835     0.00822302
    233      4      H          -0.00555971     0.01360433     0.01014276
    234      2      O          -0.00943396    -0.03741057     0.01123276
    235      4      H           0.01238948    -0.00653089     0.00344507
    236      4      H           0.00107830    -0.00206102    -0.01196196
    237      2      O          -0.01679240     0.00642075    -0.02186356
    238      4      H          -0.00590199    -0.00331102     0.01416995
    239      4      H           0.01704759    -0.00524737    -0.00084448
    240      2      O          -0.01443794    -0.02226278    -0.01525076
    241      4      H           0.01991757     0.00864768     0.01600509
    242      4      H          -0.00620458     0.01176004    -0.00079203
    243      2      O          -0.00565151     0.00632328    -0.00386842
    244      4      H           0.00588634     0.00665456     0.01334177
    245      4      H           0.00618931    -0.01229791    -0.00751071
    246      2      O           0.01431476     0.06188161    -0.00709394
    247      4      H          -0.00499147    -0.00865384     0.01233415
    248      4      H          -0.00761749    -0.00426045    -0.01105752
    249      2      O           0.00051960    -0.00394283     0.02349399
    250      4      H           0.00945559     0.02533060    -0.01071286
    251      4      H          -0.00757390    -0.02379293    -0.00760023
    252      2      O          -0.01604938     0.01203042     0.00009326
    253      4      H           0.01073719    -0.00004044    -0.01498851
    254      4      H           0.00107446    -0.01625016     0.02112339
    255      2      O          -0.02841690     0.00091620     0.00059682
    256      4      H          -0.00052640    -0.01078223     0.01326022
    257      4      H           0.02666679     0.00696802    -0.00397809
    258      2      O           0.00568929    -0.02200756    -0.00134707
    259      4      H           0.01155109     0.01179386    -0.00009978
    260      4      H          -0.00682215     0.00129317     0.00285072
    261      2      O          -0.00905732    -0.01199868    -0.00041077
    262      4      H           0.00658540     0.00088089    -0.01392910
    263      4      H          -0.00011495     0.01066314     0.01580681
    264      2      O           0.00255306     0.01531528    -0.00202906
    265      4      H           0.00914508    -0.00978039    -0.00506124
    266      4      H          -0.01228711    -0.00601842     0.01221600
    267      2      O          -0.01897246    -0.02831705    -0.01482309
    268      4      H           0.02097005     0.00962850     0.00794215
    269      4      H          -0.00956549     0.02116811     0.01031050
    270      2      O          -0.01589386    -0.01885401     0.00525451
    271      4      H          -0.00637260     0.01447206     0.00341249
    272      4      H           0.02384811     0.00617940    -0.01822476
    273      2      O          -0.04131629    -0.03414298     0.00470297
    274      4      H           0.01735992    -0.00765082    -0.00930023
    275      4      H           0.00735545     0.00937872     0.02298584
    276      2      O          -0.01735075     0.00667859    -0.02757729
    277      4      H          -0.00942748    -0.00807360     0.01582356
    278      4      H          -0.01296785     0.01403528     0.02671416
    279      2      O          -0.00205710     0.02061493    -0.00727296
    280      4      H          -0.01000271    -0.01135718     0.01048207
    281      4      H           0.00867639    -0.01051586    -0.00388453
    282      2      O           0.01121333    -0.01004734    -0.02059894
    283      4      H          -0.01327561    -0.00877052    -0.00172738
    284      4      H           0.00138337     0.01359826     0.02061369
    285      2      O          -0.01158353    -0.00855099    -0.02663453
    286      4      H           0.02179087     0.00282229     0.00630285
    287      4      H          -0.01238158     0.00438705     0.00597833
    288      2      O          -0.00306494    -0.02215344    -0.01894523
    289      4      H          -0.01125519     0.02011253     0.00922903
    290      4      H           0.01316085    -0.00069098     0.00661456
    291      2      O          -0.00812177    -0.03191452     0.00157843
    292      4      H           0.01466210     0.01703412    -0.01543266
    293      4      H          -0.01181269     0.00377567     0.01163594
    294      2      O          -0.00366704    -0.02410736     0.02529123
    295      4      H          -0.00648302    -0.00188716    -0.02226050
    296      4      H           0.00748431     0.02001120     0.00802631
    297      2      O          -0.00976323     0.00919268    -0.00730104
    298      4      H          -0.00977464     0.01124562     0.00639910
    299      4      H           0.01847014    -0.02009676     0.00856596
    300      2      O          -0.01198005     0.01647053    -0.00167339
    301      4      H           0.01880437    -0.00495333    -0.00098373
