     352
 i =        1, E =     -2053.8402447484
  C         9.5415774081        5.5997043087        6.3713415591
  O         8.8576437043        6.8703827431        6.0910074947
  P         9.5715015653        8.2437014746        6.5499945583
  O         8.5969756557        9.4961974777        6.3857774234
  O        10.6866161093        8.5779789587        5.4791214947
  O        10.0901139444        8.2254957127        7.8921813397
  H         9.0680357520        4.8515469921        5.6995917782
  H         9.4308775298        5.4237740422        7.4429933784
  H        10.6212078042        5.6488410873        6.1864155701
  H         7.8336863122        9.3171715945        6.9756775584
  H        10.3808170197        8.4982837463        4.5387417481
  C         6.3338875532       10.2072247454        9.1441192314
  O         6.8590952315        8.9622751302        8.5859414691
  P         6.7270188266        7.5805429654        9.4339890988
  O         5.2301052750        7.1959463796        9.6985372670
  O         7.2920856193        7.8582185640       10.8868971025
  O         7.3657000872        6.4614352661        8.8135390963
  H         7.1295421898       10.9611701680        9.1504178273
  H         5.9860942042       10.1665879689       10.1830813343
  H         5.4285336927       10.5460627257        8.6284042893
  H         4.8683711259        7.5670506300       10.5385236870
  H         8.2632745118        8.0783916431       10.8034233708
  O        12.5990000000        8.1930000000       11.8375000000
  H        12.8470000000        9.1020000000       11.6695000000
  H        13.2690000000        7.6750000000       11.3915000000
  O         3.7530000000        5.6890000000        7.5235000000
  H         3.9850000000        5.5710000000        8.4445000000
  H         4.1040000000        6.5490000000        7.2955000000
  O        11.5660000000        7.6430000000       14.4615000000
  H        12.0220000000        7.7740000000       13.6305000000
  H        11.5240000000        8.5160000000       14.8525000000
  O         1.6410000000        6.2400000000        9.6795000000
  H         1.6820000000        7.1920000000        9.5875000000
  H         0.7070000000        6.0340000000        9.6255000000
  O         5.9570000000       14.6030000000        1.9395000000
  H         5.3500000000       13.9170000000        1.6615000000
  H         6.3460000000       14.9240000000        1.1265000000
  O        12.9080000000        4.3820000000        2.4495000000
  H        12.2720000000        3.7320000000        2.7475000000
  H        12.7130000000        5.1640000000        2.9655000000
  O        11.8340000000        8.9710000000        1.3385000000
  H        11.1880000000        8.8020000000        2.0245000000
  H        11.3170000000        9.2640000000        0.5885000000
  O         0.0690000000       15.5260000000        7.7115000000
  H         0.0080000000       15.5910000000        8.6645000000
  H         0.9700000000       15.2470000000        7.5475000000
  O         2.2770000000       15.1800000000       12.0215000000
  H         3.0400000000       15.5780000000       11.6025000000
  H         2.4640000000       14.2410000000       12.0185000000
  O         8.9220000000       12.5240000000        9.3915000000
  H         8.6760000000       12.1190000000       10.2225000000
  H         9.7040000000       12.0450000000        9.1135000000
  O         4.9580000000        8.1120000000        6.1155000000
  H         4.0680000000        8.4000000000        6.3165000000
  H         5.4740000000        8.9180000000        6.1025000000
  O         3.8870000000        1.5230000000        7.4515000000
  H         3.3670000000        0.9640000000        6.8755000000
  H         4.1910000000        2.2340000000        6.8865000000
  O         9.0890000000       14.5700000000        3.7195000000
  H         9.4440000000       13.7820000000        4.1315000000
  H         8.1850000000       14.3420000000        3.5055000000
  O         7.1350000000        7.3680000000       14.2895000000
  H         6.3390000000        7.6340000000       14.7495000000
  H         6.8380000000        6.7220000000       13.6495000000
  O         2.5260000000        0.7680000000       12.5655000000
  H         3.0580000000        0.7690000000       11.7695000000
  H         2.6380000000        1.6460000000       12.9295000000
  O         2.9360000000        0.6730000000        4.5725000000
  H         2.8690000000        0.2570000000        3.7125000000
  H         2.4650000000        1.5010000000        4.4755000000
  O         6.1640000000        8.0220000000        2.8955000000
  H         5.6370000000        7.7420000000        3.6445000000
  H         6.6710000000        7.2460000000        2.6555000000
  O         4.3560000000       12.4440000000        1.3055000000
  H         4.7240000000       11.7600000000        1.8645000000
  H         4.2000000000       12.0110000000        0.4665000000
  O         3.9380000000        8.1820000000       11.8415000000
  H         2.9940000000        8.3350000000       11.8805000000
  H         4.3270000000        9.0400000000       12.0105000000
  O         8.1020000000        1.6980000000       11.3805000000
  H         7.3810000000        2.3270000000       11.3775000000
  H         8.8300000000        2.1690000000       11.7865000000
  O        14.5370000000        8.6180000000        5.4615000000
  H        13.9900000000        9.3700000000        5.6855000000
  H        14.5110000000        8.0610000000        6.2395000000
  O        14.3340000000       14.3740000000       14.1755000000
  H        13.9790000000       15.2600000000       14.2515000000
  H        14.1490000000       13.9670000000       15.0215000000
  O        11.7940000000       13.1560000000       12.8235000000
  H        11.6630000000       14.0920000000       12.6695000000
  H        12.3770000000       13.1160000000       13.5815000000
  O        12.7780000000        6.7590000000        3.9905000000
  H        12.1320000000        6.9450000000        4.6725000000
  H        13.3270000000        7.5420000000        3.9605000000
  O         5.5960000000       10.7480000000        2.9805000000
  H         5.5790000000       10.8690000000        3.9295000000
  H         5.8360000000        9.8290000000        2.8605000000
  O        12.5610000000       14.3450000000        3.7205000000
  H        12.5270000000       15.2930000000        3.5955000000
  H        13.4110000000       14.1880000000        4.1325000000
  O         2.3170000000        8.3240000000        6.5425000000
  H         1.9960000000        7.4800000000        6.2235000000
  H         2.1740000000        8.2940000000        7.4885000000
  O         4.6390000000       10.0680000000       15.5565000000
  H         4.4890000000        9.1330000000       15.6945000000
  H         3.8670000000       10.4930000000       15.9315000000
  O        11.1740000000        2.5350000000        3.4835000000
  H        11.8740000000        2.0480000000        3.9175000000
  H        10.4140000000        2.4220000000        4.0545000000
  O        15.0160000000        4.3400000000        4.0755000000
  H        14.4850000000        4.6730000000        3.3515000000
  H        15.6500000000        5.0360000000        4.2465000000
  O        10.0010000000        8.3410000000       10.5695000000
  H        10.6270000000        8.8320000000       11.1015000000
  H        10.3520000000        8.3890000000        9.6805000000
  O         6.9010000000        4.0670000000       14.6515000000
  H         6.1560000000        4.3940000000       15.1555000000
  H         7.6690000000        4.3500000000       15.1475000000
  O         7.4690000000        3.8080000000        8.1645000000
  H         7.1110000000        3.6820000000        7.2855000000
  H         7.0810000000        4.6300000000        8.4655000000
  O         4.6340000000        3.3060000000        5.5425000000
  H         4.8830000000        4.2190000000        5.6835000000
  H         5.2290000000        2.9970000000        4.8595000000
  O        13.2570000000        3.7650000000        6.1225000000
  H        13.1380000000        2.8600000000        5.8335000000
  H        13.9760000000        4.0960000000        5.5835000000
  O         2.2020000000       13.7190000000        0.4655000000
  H         1.8490000000       12.9040000000        0.1075000000
  H         2.8870000000       13.4380000000        1.0725000000
  O        13.1250000000       10.7770000000       11.5425000000
  H        12.6270000000       11.3380000000       12.1365000000
  H        13.9270000000       11.2670000000       11.3635000000
  O        15.5020000000        6.7740000000        7.4595000000
  H        15.6920000000        6.2390000000        6.6895000000
  H        15.5190000000        6.1570000000        8.1915000000
  O         8.1100000000       12.5850000000        6.7245000000
  H         8.1720000000       12.4910000000        7.6745000000
  H         9.0150000000       12.7010000000        6.4345000000
  O         7.4850000000       15.5580000000        7.1095000000
  H         7.5600000000       14.7250000000        6.6435000000
  H         8.3010000000       15.6300000000        7.6045000000
  O        14.4190000000        8.2230000000        0.7845000000
  H        14.3010000000        7.2730000000        0.7505000000
  H        13.5570000000        8.5640000000        1.0205000000
  O         2.8950000000       11.4780000000        9.5535000000
  H         2.0230000000       11.7090000000        9.2345000000
  H         3.0860000000       12.1330000000       10.2245000000
  O         6.8100000000        0.8480000000        7.8415000000
  H         7.1430000000        1.1650000000        8.6815000000
  H         5.8580000000        0.8620000000        7.9395000000
  O         4.6610000000       10.7920000000       12.8025000000
  H         4.4720000000       10.5260000000       13.7015000000
  H         5.2750000000       11.5210000000       12.8915000000
  O         8.3420000000       10.6660000000        2.0645000000
  H         7.8250000000       10.9840000000        2.8045000000
  H         7.7950000000       10.8360000000        1.2985000000
  O         1.7170000000        5.7870000000        5.7255000000
  H         2.4060000000        5.8160000000        6.3885000000
  H         2.1840000000        5.8260000000        4.8915000000
  O         9.6990000000       14.5170000000       15.3105000000
  H         9.9020000000       14.3030000000       14.3995000000
  H        10.4760000000       14.2460000000       15.7995000000
  O        14.2930000000        0.9710000000        8.1225000000
  H        13.4130000000        0.6230000000        7.9765000000
  H        14.2210000000        1.4710000000        8.9355000000
  O        14.6920000000       12.9650000000        6.2645000000
  H        15.2730000000       12.6470000000        5.5735000000
  H        15.2800000000       13.2140000000        6.9775000000
  O         8.5540000000        6.2650000000        2.0045000000
  H         8.7310000000        5.3860000000        2.3395000000
  H         8.7070000000        6.1990000000        1.0625000000
  O         0.9380000000       11.2510000000       14.6665000000
  H         0.8320000000       10.3750000000       15.0365000000
  H         1.5460000000       11.6900000000       15.2625000000
  O        14.9770000000       12.3430000000       10.4995000000
  H        15.3900000000       11.6110000000       10.0415000000
  H        15.6530000000       12.6650000000       11.0965000000
  O         9.2600000000       10.1020000000       14.0355000000
  H         9.3970000000        9.1620000000       13.9165000000
  H         8.4120000000       10.1670000000       14.4745000000
  O         1.6650000000        3.0390000000        4.2885000000
  H         2.1690000000        3.8530000000        4.3045000000
  H         1.0120000000        3.1480000000        4.9805000000
  O         0.6760000000        0.6750000000        9.9275000000
  H         0.9830000000        1.5040000000       10.2945000000
  H        -0.0350000000        0.9230000000        9.3355000000
  O         4.4550000000       13.4280000000        6.4175000000
  H         4.2770000000       14.0570000000        7.1165000000
  H         3.8220000000       13.6450000000        5.7325000000
  O         5.9120000000        4.4150000000        2.6045000000
  H         6.7790000000        4.8140000000        2.6815000000
  H         6.0840000000        3.4750000000        2.5535000000
  O        13.1660000000        1.2770000000        5.0115000000
  H        12.7560000000        0.6960000000        5.6525000000
  H        13.8130000000        0.7270000000        4.5695000000
  O        12.9900000000       10.9740000000        3.8735000000
  H        12.1160000000       10.7630000000        3.5455000000
  H        13.4330000000       11.3830000000        3.1305000000
  O         6.3770000000       12.8820000000       12.9635000000
  H         7.2900000000       12.8570000000       12.6765000000
  H         6.3190000000       13.6650000000       13.5105000000
  O         9.6610000000        8.4020000000        2.8625000000
  H         9.1490000000        7.6000000000        2.7595000000
  H         9.1250000000        9.0820000000        2.4545000000
  O        12.9430000000       15.1840000000        7.3275000000
  H        13.3810000000       14.4900000000        6.8345000000
  H        12.9020000000       14.8520000000        8.2245000000
  O         2.0530000000       10.9730000000        5.8855000000
  H         2.2870000000       10.0670000000        5.6845000000
  H         2.7570000000       11.2820000000        6.4555000000
  O        11.6950000000        5.6790000000        9.3725000000
  H        12.1770000000        4.9590000000        9.7795000000
  H        12.3540000000        6.3590000000        9.2305000000
  O        12.9510000000       10.7290000000        6.9805000000
  H        13.4150000000       11.5540000000        7.1225000000
  H        13.0320000000       10.5660000000        6.0405000000
  O         0.2270000000        2.3260000000        1.9935000000
  H         0.5350000000        2.4190000000        1.0915000000
  H         1.0270000000        2.2520000000        2.5135000000
  O         9.1580000000       12.2250000000       12.1125000000
  H        10.0220000000       12.6000000000       12.2825000000
  H         9.1340000000       11.4280000000       12.6425000000
  O         1.1070000000        5.6100000000       13.7045000000
  H         1.1900000000        6.5440000000       13.5145000000
  H         0.5690000000        5.2660000000       12.9915000000
  O         2.5200000000        7.1920000000        1.1135000000
  H         1.8700000000        7.6240000000        0.5595000000
  H         3.3620000000        7.4280000000        0.7245000000
  O        11.1770000000       11.0800000000        9.2865000000
  H        11.6660000000       10.8820000000        8.4885000000
  H        11.7490000000       10.7880000000        9.9975000000
  O        12.9060000000       13.9100000000        9.7585000000
  H        13.5210000000       13.3910000000       10.2775000000
  H        12.0440000000       13.6670000000       10.0965000000
  O         3.1710000000        5.5870000000        3.2725000000
  H         3.1870000000        6.2340000000        2.5675000000
  H         4.0370000000        5.1800000000        3.2455000000
  O         5.1850000000        2.4800000000       13.2355000000
  H         5.8360000000        2.7140000000       13.8965000000
  H         4.4230000000        3.0200000000       13.4465000000
  O        14.4490000000        4.6520000000       12.3235000000
  H        14.5700000000        3.8750000000       12.8685000000
  H        14.1630000000        5.3320000000       12.9345000000
  O         0.1350000000        7.3120000000        3.2685000000
  H         0.9120000000        6.8790000000        3.6205000000
  H         0.1870000000        7.1700000000        2.3235000000
  O         1.6720000000       11.9920000000       12.1865000000
  H         1.5600000000       12.0820000000       13.1325000000
  H         2.5970000000       11.7740000000       12.0735000000
  O        13.8030000000        1.4300000000        0.8025000000
  H        14.4310000000        1.7990000000        1.4245000000
  H        13.5070000000        2.1810000000        0.2875000000
  O        12.2150000000        2.0210000000       13.2375000000
  H        12.6890000000        2.5820000000       13.8515000000
  H        12.8040000000        1.2810000000       13.0855000000
  O        15.9880000000        9.5240000000        3.2285000000
  H        15.3600000000        9.2520000000        3.8985000000
  H        15.5160000000        9.4210000000        2.4015000000
  O         9.6830000000       15.0380000000       10.3345000000
  H         9.9060000000       15.6520000000        9.6345000000
  H         9.2670000000       14.3030000000        9.8855000000
  O         6.9000000000        5.1680000000       11.9255000000
  H         7.7170000000        5.3470000000       11.4605000000
  H         7.1650000000        4.6550000000       12.6885000000
  O        15.0810000000       15.4980000000       11.4555000000
  H        14.8720000000       15.2640000000       12.3595000000
  H        16.0350000000       15.4410000000       11.4075000000
  O         0.9290000000        3.4500000000       10.3905000000
  H         1.5050000000        4.2120000000       10.4505000000
  H         0.1490000000        3.6990000000       10.8865000000
  O         2.5190000000        3.5970000000        0.7685000000
  H         3.0940000000        3.9070000000        0.0685000000
  H         2.6740000000        4.2030000000        1.4925000000
  O         6.6160000000        1.6900000000        0.4055000000
  H         7.1350000000        0.9010000000        0.2455000000
  H         6.0710000000        1.4680000000        1.1605000000
  O         6.0640000000       10.9880000000        5.7305000000
  H         6.9930000000       11.1140000000        5.9215000000
  H         5.6590000000       11.8280000000        5.9425000000
  O        11.1560000000        3.4250000000        7.8525000000
  H        10.9450000000        4.2440000000        8.3015000000
  H        11.7600000000        3.6820000000        7.1555000000
  O         5.4500000000       15.0260000000        8.7135000000
  H         6.1200000000       15.0910000000        8.0335000000
  H         5.8730000000       15.3700000000        9.5005000000
  O        15.1000000000        5.3370000000        9.7825000000
  H        14.6810000000        4.8920000000       10.5185000000
  H        15.6040000000        6.0440000000       10.1835000000
  O         6.5650000000        1.4910000000        3.8785000000
  H         6.1260000000        0.9100000000        4.4985000000
  H         7.1840000000        0.9250000000        3.4155000000
  O        12.3130000000       12.9790000000        1.3445000000
  H        11.4470000000       12.6450000000        1.1105000000
  H        12.1400000000       13.6560000000        1.9985000000
  O         4.7710000000        4.0550000000       10.5385000000
  H         5.4680000000        4.4600000000       11.0555000000
  H         3.9780000000        4.5260000000       10.7945000000
  O         6.3540000000        5.7750000000        5.5635000000
  H         5.9360000000        6.5780000000        5.8725000000
  H         7.2860000000        5.9060000000        5.7395000000
  O        10.1180000000        1.4410000000        9.2085000000
  H        10.4240000000        2.1060000000        8.5915000000
  H         9.8530000000        1.9370000000        9.9825000000
  O         4.1900000000        1.3930000000       10.1445000000
  H         4.0020000000        1.3650000000        9.2065000000
  H         4.4280000000        2.3050000000       10.3135000000
  O        13.5430000000        1.7600000000       10.5465000000
  H        13.2410000000        2.5040000000       11.0675000000
  H        14.2780000000        1.4020000000       11.0435000000
  O         8.8340000000        3.5660000000        2.1025000000
  H         9.7420000000        3.5050000000        1.8075000000
  H         8.5890000000        2.6650000000        2.3125000000
  O         0.9100000000        8.2910000000       12.7775000000
  H         0.7790000000        8.7230000000       13.6215000000
  H         0.2180000000        8.6440000000       12.2185000000
  O        15.4820000000        8.1400000000       13.4865000000
  H        14.5890000000        8.0500000000       13.8195000000
  H        16.0270000000        8.1830000000       14.2715000000
  O         9.3000000000        1.8960000000        5.7565000000
  H         8.4440000000        1.5030000000        5.9315000000
  H         9.5930000000        2.2210000000        6.6075000000
  O        13.4170000000        8.1870000000        8.9925000000
  H        14.2570000000        8.0230000000        8.5635000000
  H        13.2310000000        9.1080000000        8.8115000000
  O         4.1900000000        5.5670000000       13.0075000000
  H         4.9510000000        5.4330000000       12.4425000000
  H         3.7990000000        6.3830000000       12.6925000000
  O         9.8510000000        5.5970000000       11.5515000000
  H        10.5200000000        5.8030000000       10.8985000000
  H         9.2440000000        6.3360000000       11.5135000000
  O         2.0050000000        8.9220000000        9.4905000000
  H         2.5380000000        9.6720000000        9.2235000000
  H         1.3850000000        9.2820000000       10.1235000000
  O         6.8610000000       15.7000000000       11.1345000000
  H         6.7990000000       15.5240000000       12.0735000000
  H         7.8010000000       15.7430000000       10.9595000000
  O         4.1270000000       13.3640000000       11.0665000000
  H         4.8190000000       13.0100000000       11.6235000000
  H         4.5930000000       13.8160000000       10.3625000000
  O         2.4050000000        3.2060000000       13.7495000000
  H         2.1820000000        4.1370000000       13.7355000000
  H         1.5700000000        2.7610000000       13.8915000000
  O         9.7370000000        3.2160000000       12.8105000000
  H        10.6640000000        3.0660000000       13.0005000000
  H         9.7000000000        4.1180000000       12.4945000000
  O        10.7140000000       12.6750000000        5.7005000000
  H        11.4440000000       12.1300000000        5.9955000000
  H        11.1070000000       13.2800000000        5.0705000000
  O         0.9770000000        3.2580000000        7.0355000000
  H         1.2980000000        4.1100000000        6.7405000000
  H         1.4890000000        3.0680000000        7.8215000000
     352
 i =        2, E =     -2053.8482266525
  C         9.5470333772        5.5978742235        6.3765695427
  O         8.8592581411        6.8905264046        6.0842117313
  P         9.5773579170        8.2402101287        6.5509490967
  O         8.5871695687        9.4884927627        6.3723847829
  O        10.6910952021        8.5767115190        5.4780495628
  O        10.1036010977        8.2203387361        7.9079538483
  H         9.0713817278        4.8536893420        5.7073161401
  H         9.4252298401        5.4183082049        7.4398556231
  H        10.6204899415        5.6509216588        6.1812289857
  H         7.8278800865        9.3196579729        6.9830448515
  H        10.3757966055        8.4994463877        4.5301069884
  C         6.3273869961       10.2187507215        9.1518439579
  O         6.8527195095        8.9588217261        8.5941600986
  P         6.7266628946        7.5765343154        9.4368845124
  O         5.2253843995        7.2027266583        9.6948454347
  O         7.2894230873        7.8682798945       10.8935010442
  O         7.3813517962        6.4516373568        8.7933296667
  H         7.1281832442       10.9590982526        9.1444495231
  H         5.9899572799       10.1570510942       10.1856010217
  H         5.4332506879       10.5447891106        8.6210307065
  H         4.8565373613        7.5709877442       10.5457994911
  H         8.2724156052        8.0839224459       10.8037893093
  O        12.5990000000        8.1930000000       11.8375000000
  H        12.8470000000        9.1020000000       11.6695000000
  H        13.2690000000        7.6750000000       11.3915000000
  O         3.7530000000        5.6890000000        7.5235000000
  H         3.9850000000        5.5710000000        8.4445000000
  H         4.1040000000        6.5490000000        7.2955000000
  O        11.5660000000        7.6430000000       14.4615000000
  H        12.0220000000        7.7740000000       13.6305000000
  H        11.5240000000        8.5160000000       14.8525000000
  O         1.6410000000        6.2400000000        9.6795000000
  H         1.6820000000        7.1920000000        9.5875000000
  H         0.7070000000        6.0340000000        9.6255000000
  O         5.9570000000       14.6030000000        1.9395000000
  H         5.3500000000       13.9170000000        1.6615000000
  H         6.3460000000       14.9240000000        1.1265000000
  O        12.9080000000        4.3820000000        2.4495000000
  H        12.2720000000        3.7320000000        2.7475000000
  H        12.7130000000        5.1640000000        2.9655000000
  O        11.8340000000        8.9710000000        1.3385000000
  H        11.1880000000        8.8020000000        2.0245000000
  H        11.3170000000        9.2640000000        0.5885000000
  O         0.0690000000       15.5260000000        7.7115000000
  H         0.0080000000       15.5910000000        8.6645000000
  H         0.9700000000       15.2470000000        7.5475000000
  O         2.2770000000       15.1800000000       12.0215000000
  H         3.0400000000       15.5780000000       11.6025000000
  H         2.4640000000       14.2410000000       12.0185000000
  O         8.9220000000       12.5240000000        9.3915000000
  H         8.6760000000       12.1190000000       10.2225000000
  H         9.7040000000       12.0450000000        9.1135000000
  O         4.9580000000        8.1120000000        6.1155000000
  H         4.0680000000        8.4000000000        6.3165000000
  H         5.4740000000        8.9180000000        6.1025000000
  O         3.8870000000        1.5230000000        7.4515000000
  H         3.3670000000        0.9640000000        6.8755000000
  H         4.1910000000        2.2340000000        6.8865000000
  O         9.0890000000       14.5700000000        3.7195000000
  H         9.4440000000       13.7820000000        4.1315000000
  H         8.1850000000       14.3420000000        3.5055000000
  O         7.1350000000        7.3680000000       14.2895000000
  H         6.3390000000        7.6340000000       14.7495000000
  H         6.8380000000        6.7220000000       13.6495000000
  O         2.5260000000        0.7680000000       12.5655000000
  H         3.0580000000        0.7690000000       11.7695000000
  H         2.6380000000        1.6460000000       12.9295000000
  O         2.9360000000        0.6730000000        4.5725000000
  H         2.8690000000        0.2570000000        3.7125000000
  H         2.4650000000        1.5010000000        4.4755000000
  O         6.1640000000        8.0220000000        2.8955000000
  H         5.6370000000        7.7420000000        3.6445000000
  H         6.6710000000        7.2460000000        2.6555000000
  O         4.3560000000       12.4440000000        1.3055000000
  H         4.7240000000       11.7600000000        1.8645000000
  H         4.2000000000       12.0110000000        0.4665000000
  O         3.9380000000        8.1820000000       11.8415000000
  H         2.9940000000        8.3350000000       11.8805000000
  H         4.3270000000        9.0400000000       12.0105000000
  O         8.1020000000        1.6980000000       11.3805000000
  H         7.3810000000        2.3270000000       11.3775000000
  H         8.8300000000        2.1690000000       11.7865000000
  O        14.5370000000        8.6180000000        5.4615000000
  H        13.9900000000        9.3700000000        5.6855000000
  H        14.5110000000        8.0610000000        6.2395000000
  O        14.3340000000       14.3740000000       14.1755000000
  H        13.9790000000       15.2600000000       14.2515000000
  H        14.1490000000       13.9670000000       15.0215000000
  O        11.7940000000       13.1560000000       12.8235000000
  H        11.6630000000       14.0920000000       12.6695000000
  H        12.3770000000       13.1160000000       13.5815000000
  O        12.7780000000        6.7590000000        3.9905000000
  H        12.1320000000        6.9450000000        4.6725000000
  H        13.3270000000        7.5420000000        3.9605000000
  O         5.5960000000       10.7480000000        2.9805000000
  H         5.5790000000       10.8690000000        3.9295000000
  H         5.8360000000        9.8290000000        2.8605000000
  O        12.5610000000       14.3450000000        3.7205000000
  H        12.5270000000       15.2930000000        3.5955000000
  H        13.4110000000       14.1880000000        4.1325000000
  O         2.3170000000        8.3240000000        6.5425000000
  H         1.9960000000        7.4800000000        6.2235000000
  H         2.1740000000        8.2940000000        7.4885000000
  O         4.6390000000       10.0680000000       15.5565000000
  H         4.4890000000        9.1330000000       15.6945000000
  H         3.8670000000       10.4930000000       15.9315000000
  O        11.1740000000        2.5350000000        3.4835000000
  H        11.8740000000        2.0480000000        3.9175000000